<?xml version="1.0"?>
<VTKFile type="UnstructuredGrid"  version="0.1"  >
<UnstructuredGrid>
<Piece  NumberOfPoints="458" NumberOfCells="832">
<Points>
<DataArray  type="Float64"  NumberOfComponents="3"  format="ascii">1.89999999851 0.173205083338 0  1.100000014951 1.558845700916 0  1.899999976859 -0.173205070838 0  1.100000014951 -1.558845700916 0  0.79999999702 -1.732050782569 0  -0.79999999702 -1.732050776482 0  -1.100000014951 -1.558845700916 0  -1.899999976859 -0.173205070838 0  -1.79999999702 0 0  -1.900000020161 0.173205095838 0  -1.099999993301 1.558845688416 0  -0.79999999702 1.732050776482 0  0.79999999702 1.732050782569 0  0.319999992847 0 0  1.800000000564919 0.3464101605351311 0  1.700000002620031 0.5196152377323734 0  1.600000004675143 0.692820314929615 0  1.500000006730255 0.8660253921268568 0  1.400000008785367 1.039230469324099 0  1.300000010840478 1.212435546521341 0  1.200000012895589 1.385640623718584 0  1.826794919787441 0.1000000069028046 0  1.79999999702 1.250015836376237e-08 0  1.826794907287283 -0.099999985251895 0  1.20000001289601 -1.385640623718855 0  1.300000010840887 -1.212435546521633 0  1.400000008785764 -1.039230469324411 0  1.50000000673064 -0.8660253921271891 0  1.600000004675517 -0.6928203149299665 0  1.700000002620394 -0.5196152377327439 0  1.800000000565272 -0.3464101605355203 0  1.000000010135792 -1.532050773502 0  0.9000000026047366 -1.558845690780259 0  0.8267949163226551 -1.63205077558038 0  -0.5999999977650006 -1.732050807569 0  -0.3999999985100012 -1.732050807569 0  -0.1999999992550012 -1.732050807569 0  -1.110223024625157e-15 -1.732050807569001 0  0.199999999254999 -1.732050807569001 0  0.3999999985099993 -1.732050807569001 0  0.5999999977649997 -1.732050807569001 0  -0.8267949186052803 -1.632050771626757 0  -0.9000000052404853 -1.558845689258509 0  -1.000000011657542 -1.532050773502 0  -1.80000000056484 -0.3464101605352689 0  -1.700000002619963 -0.5196152377324909 0  -1.600000004675086 -0.6928203149297129 0  -1.50000000673021 -0.8660253921269347 0  -1.400000008785332 -1.039230469324158 0  -1.300000010840455 -1.21243554652138 0  -1.200000012895578 -1.385640623718604 0  -1.858578628397188 -0.141421345086162 0  -1.826794910412323 -0.09999999066462284 0  -1.8068148302461 -0.05176380375471544 0  -1.806814833481379 0.05176381582894065 0  -1.82679492291248 0.1000000123155314 0  -1.858578654914027 0.1414213716030013 0  -1.200000012896172 1.385640623718575 0  -1.300000010841052 1.212435546521347 0  -1.400000008785931 1.039230469324121 0  -1.500000006730811 0.8660253921268936 0  -1.600000004675691 0.6928203149296657 0  -1.700000002620571 0.5196152377324381 0  -1.800000000565452 0.3464101605352095 0  -0.9999999929079547 1.532050773502 0  -0.8999999944154055 1.558845695508372 0  -0.8267949154803489 1.632050777039297 0  0.5999999977650006 1.732050807569 0  0.3999999985100012 1.732050807569 0  0.1999999992550012 1.732050807569 0  1.110223024625157e-15 1.732050807569 0  -0.199999999254999 1.732050807569 0  -0.3999999985099993 1.732050807569 0  -0.5999999977649997 1.732050807569 0  0.8267949163226553 1.63205077558038 0  0.9000000026047372 1.558845690780259 0  1.000000010135792 1.532050773502 0  0.2262741649217603 0.2262741649217604 0  -1.225141956270872e-16 0.319999992847 0  -0.2262741649217606 0.2262741649217602 0  -0.319999992847 -3.871369352296243e-16 0  -0.2262741649217604 -0.2262741649217604 0  -3.43000132995988e-16 -0.319999992847 0  0.2262741649217602 -0.2262741649217606 0  -1.32403227008249 -0.1655481618264791 0  -0.6559545001721463 0.834831333527045 0  -0.6191324613560272 -0.8741963010775502 0  0.6518296435701447 -0.7791739169485039 0  0.5632210527941763 0.8021260071304711 0  1.130293756453899 -0.1279621763024616 0  -1.461712362090102 0.1190783395122679 0  9.899570052596118e-10 1.071362033067026 0  -3.183528995975848e-10 -1.071362032187092 0  -0.9173861017199769 0.2603195491201329 0  1.074949847941503 0.460358358492222 0  -0.8065588731879085 -0.3159356407839176 0  -1.569722542613223 -0.1093617800402951 0  -1.673769442513438 -0.2626283701225128 0  -0.5635866351940764 1.242851209417302 0  -0.5598007095572424 -1.251573502084433 0  0.5638384137458936 -1.234893993876831 0  0.5573095865749496 1.237225622765117 0  1.389206549287774 0.1108386526553084 0  1.036555967380581 -0.6425789452392957 0  1.481102457895208 -0.2057972302793381 0  -1.156711300658747 -0.4893931744805272 0  -0.9041757277480991 1.159522207920891 0  -0.9041757295712607 -1.159522202691768 0  0.9041757291274908 -1.15952220396478 0  0.8918105025079943 1.101608161990076 0  -1.059325271771506 0.6559214418832671 0  0.6410368259045096 -0.3487674155795288 0  0.6787218978266278 0.3574434174696062 0  -1.631838781633664 0.2884164889910588 0  1.634220711342343 0.2159440448888993 0  -0.4844594889400557 0.404353903131473 0  -0.466832278464886 -0.4305270217586601 0  0.1830450209317946 0.7132950468466426 0  0.185506562858873 -0.7157604202338106 0  -0.2117235312324399 0.7157007805003385 0  -0.6364741358352903 1.522169026678317 0  0.6364741422703739 -1.522169026310948 0  0.6364741265906544 1.522169047552075 0  -0.6364741298905381 -1.522169045769297 0  1.153245653969795 0.8125435811252458 0  -1.675290235500546 0.08173492774153664 0  -1.716846627169645 -0.09546304681612794 0  -0.2162552305693515 -1.404671790267723 0  0.2222638991767358 1.393455111054298 0  -0.2136026320640432 -0.7613804003943083 0  -1.350126001035187 0.4222907150240823 0  0.2266518796062817 -1.398690222581374 0  -0.2254469940828132 1.399899560806989 0  0.7727797158409135 -0.0346573635232891 0  -1.202472302245696 0.09231908130098411 0  1.389104166823814 0.4728013220705489 0  1.306408918641911 -0.5218831830269506 0  -1.118393238467754 -0.8595765265729055 0  -1.483332104487766 -0.3410763668055316 0  -1.000000021673877 -1.36020781303683 0  1.000000018844721 -1.360207814957552 0  1.000000018844257 1.360207814957642 0  -1.000000010053948 1.360207820925555 0  1.096763761276131 0.1659251913444485 0  0.3133386268227811 1.031331000374428 0  0.329680055380664 -1.007007473240028 0  1.691035586012954 -0.178380648964582 0  1.59692213245873 -0.006233856742581054 0  -0.3286579601255153 1.042940983465423 0  1.135377526486168 -0.9369518106758185 0  -0.6666609353928488 -0.0347164408773531 0  -1.02421962834045 -0.1284425332113929 0  -0.8388083608581667 -0.6035800904860518 0  -0.7906711369348565 -1.379316015040293 0  0.7949696095403955 1.363779517252508 0  -0.7906711479877582 1.379316033299444 0  0.790671153106679 -1.379316026272514 0  -0.7794313524841043 0.5335251661142921 0  0.3179916877369648 -0.3906878064959698 0  -1.132329475310357 0.9597530835481207 0  0.8706169569015501 0.6760387441929983 0  -0.3145384984381669 -1.075380959373884 0  -1.772834810415322 -0.2229415465613838 0  0.306988950262191 0.3966495573020577 0  -1.431999086511746 -0.5809716244878878 0  0.9242220838258843 -0.3771439842560163 0  -1.761048750668734 0.2252040258758886 0  -1.059929201982837 0.1763193152105585 0  -1.276299151640442 0.2573048981625332 0  -1.133756051377582 0.3413051320721076 0  1.259750152870836 -0.008561761823576611 0  1.435154503591491 -0.04747928881201485 0  1.305698107174553 -0.1668797032908999 0  0.7880258636980146 -0.5781589506022601 0  0.9803890256032326 -0.509861464747656 0  0.8441928054753629 -0.7108764310938998 0  -1.204725636403347 0.5391060784536746 0  -0.9883556867457415 0.4581204955017 0  1.085966746933375 -0.7897653779575571 0  0.8936035850281565 -0.8580628638121612 0  1.767110354926075 0.1945745641133941 0  1.667110356981187 0.3677796413106363 0  1.695517794316674 -0.3489979433486629 0  1.7955177814361 -0.1757928599010775 0  0.6464332347373272 -0.5639706662640164 0  0.7826294548651971 -0.3629556999177725 0  -0.8576398859718259 0.745376387705156 0  -1.095827373540931 0.8078372627156939 0  -0.8941419877412518 0.8972922085375828 0  1.39375568826856 -0.3638402066531443 0  1.218351337547905 -0.3249226796647061 0  -0.8687628499118905 -0.8668864138252279 0  -0.97860079966296 -0.7315783085294787 0  -0.7289704111070971 -0.738888195781801 0  -1.018252601529228 1.059637645734506 0  -0.7800651139601227 0.997176770723968 0  0.7780026863488176 -0.969348060456642 0  1.019776627806829 -1.048237007320299 0  -0.7616540954636442 -1.016859251884659 0  -1.011284484019507 -1.009549364632337 0  -1.05000001250262 1.459526760920679 0  -1.1500000104475 1.286321683723451 0  -1.150000016257167 -1.286321679779105 0  -1.050000018312423 -1.459526756976441 0  1.150000014842367 1.286321680739491 0  1.050000016897479 1.459526757936735 0  1.050000016897927 -1.459526757936815 0  1.150000014842804 -1.286321680739593 0  1.115315501233898 -0.4495135836414834 0  1.027257920139891 -0.252553080279239 0  -0.5182370671726448 1.627109917123658 0  -0.718237066427645 1.627109901580158 0  0.5182370703901866 -1.627109916939975 0  0.718237069645187 -1.627109904439974 0  -0.7182370634552688 -1.627109926669149 0  -0.5182370642002696 -1.627109926669149 0  0.7182370618053273 1.627109927560538 0  0.5182370625503276 1.627109927560538 0  -0.3880279700632969 -1.328122646176078 0  -0.4263646802299448 -1.46342041801851 0  -0.5981374197238902 -1.386871273926865 0  0.3897867428758426 1.315340366909707 0  0.4293690128836951 1.457812079303186 0  0.5968918565828019 1.379697335158596 0  1.085856804608817 0.3131417749183352 0  0.8877428295513794 0.2616843044070273 0  0.8768358728840651 0.4089008879809141 0  -0.3081276145396763 -1.568361298918362 0  0.3111319488433684 1.562752959311649 0  -1.17412594921147 -0.146995347518936 0  -1.090465464499599 -0.30891785384596 0  -1.240371785370618 -0.3274706681535031 0  -1.320021702573257 -0.4152347706430294 0  -1.403682187285128 -0.2533122643160053 0  -1.751042579206513 0.09086747002853399 0  -1.737645116260273 0.04086746387076829 0  0.9347717385585221 0.06563391391057971 0  0.7257508068337706 0.1613930269731585 0  0.4849106656535547 -0.5849308617222369 0  0.4795142568207371 -0.3697276110377493 0  0.09275328142943629 -0.5178802065404053 0  -0.01404803460258508 -0.7385704103140595 0  -0.1068013160320218 -0.5406901
[...]
<PointData  Scalars="f_10"> 
<DataArray  type="Float64"  Name="f_10"  format="ascii">7.0733167065415903e-01  5.0707443681238107e-01  7.4915643747543303e-01  7.8844607341381823e-01  8.8713573273963897e-01  9.2874548784710798e-01  7.5515616451842571e-01  8.3797146078222562e-01  3.7885503816201704e-01  9.3276387627570997e-02  8.6304434716437528e-01  9.8171816398988143e-01  7.1356455741557123e-01  7.5234237263030446e-01  6.6475678100165125e-01  5.6969313283938805e-01  4.4510263113359155e-01  3.2103720120296092e-01  2.5840066678996965e-01  3.1607827898715452e-01  4.3262789603685203e-01  7.2527923834318908e-01  7.5217138567614594e-01  7.5435692023491840e-01  7.6351132590860726e-01  7.3017474162782392e-01  7.0457702331308703e-01  6.9295460719718582e-01  6.9793975302561861e-01  7.1721236432171120e-01  7.3955608011853013e-01  8.0441753812357231e-01  8.4324988359819153e-01  8.7680095855063411e-01  9.0545082905158847e-01  8.7459225526297424e-01  8.6646912585796032e-01  8.7804998495960063e-01  9.0200812500096728e-01  9.2205648254591810e-01  9.1043463374115818e-01  9.2943054229950295e-01  8.7264594763718784e-01  7.8718842786351018e-01  4.5281187135981621e-01  1.7450930942041398e-01  2.5364661063612187e-01  4.0475982286025336e-01  5.2078457635333009e-01  6.1206243717019115e-01  6.9635686067800096e-01  8.6673002358487627e-01  8.8325464634843598e-01  6.6597911404732812e-01  1.7526605579051432e-01  9.8039184494128045e-02  9.0049593282045814e-02  8.4015226226522455e-01  8.2384107360219327e-01  8.4165829782950463e-01  8.6316007776825299e-01  6.8978469699550016e-01  3.5084060208803292e-01  1.4494473497488547e-01  8.7911358477108992e-01  9.2250104211122896e-01  9.6727399930670843e-01  7.6372639205594739e-01  8.3162841006423527e-01  8.9047825993209351e-01  9.4413981472980735e-01  9.8312118065308640e-01  9.9171651801071914e-01  9.9172002446453944e-01  6.9131383190359530e-01  6.2373515791169865e-01  5.4225508301177183e-01  8.2999912572811307e-01  9.5362150116674760e-01  9.9665403454252877e-01  9.9665403454252877e-01  9.7987948240225309e-01  8.9796753380362382e-01  8.2021639080669440e-01  1.9798881085869902e-01  7.5900764266493648e-01  5.4803628645889513e-01  8.1449810947248669e-01  7.7629714828857366e-01  7.3815036866637396e-01  6.6811401624415720e-02  9.7110233237134547e-01  9.3451497667159900e-01  2.9625711243473890e-01  5.2198101127803553e-01  5.0821901698748584e-01  2.9474351651118547e-01  4.0960501979964520e-01  9.4511513217514931e-01  8.3873869340064178e-01  9.3637474250259745e-01  9.9665403454252888e-01  9.9665403454252877e-01  7.1667799974225677e-01  7.9276863711907397e-01  4.8667607805618335e-01  8.3768732840028448e-01  7.0238035099844454e-01  7.9422482243513193e-01  4.7805765282040702e-01  6.5225788989649702e-01  7.4962332514528252e-01  6.7217829216471969e-01  1.0449079826520853e-01  7.1614010330499234e-01  6.1970768729455783e-01  9.9665403454252866e-01  9.9665403454252866e-01  9.9665403454252877e-01  9.9665403454252866e-01  9.9665403454252888e-01  9.2109935042996716e-01  7.5720596039212229e-01  9.2393693469062943e-01  0.0000000000000000e+00  0.0000000000000000e+00  5.9101517409698645e-01  8.7643763175012546e-01  9.2284401496885571e-01  7.7133677482644625e-01  3.5019053113110660e-01  9.3334963457135844e-01  9.8275070893527838e-01  6.9553822222749695e-01  1.4149302890940454e-01  5.3421169639036703e-01  7.0862450746410921e-01  5.7420865456490044e-01  1.7046766649375941e-01  7.4685998021781919e-01  7.9224273776555909e-01  5.0615727592003545e-01  8.6203548233119898e-01  6.7910870524500044e-01  9.9665403454252866e-01  9.9665403454252877e-01  7.6266499054485437e-01  8.0995991298587156e-01  9.2289060118417487e-01  7.2074749454991571e-01  0.0000000000000000e+00  0.0000000000000000e+00  7.4940157445360900e-01  8.5622437494240700e-01  6.5793282345588744e-01  9.2741562389629839e-01  8.6224930329206861e-01  5.4771653302391277e-01  8.4668420578692383e-01  8.0567605028480194e-01  4.9072418443716093e-01  9.2831335394656889e-01  6.5788136391392271e-01  8.5340029462577449e-01  2.4352659801863388e-01  7.1657638982008887e-01  9.5661284298370036e-02  2.2208956566303747e-01  1.6818094564202490e-01  3.3168249882935968e-01  8.0880181521530947e-01  9.9665403454252877e-01  7.8965873619719662e-01  7.4982595145070363e-01  7.1764090524485169e-01  7.5262204603395066e-01  5.7003365487449109e-01  4.6340393932592000e-01  7.1751591251147306e-01  7.5800650334119002e-01  7.0808600338793704e-01  6.3819955565882613e-01  7.3756429149226443e-01  7.5187481220579522e-01  7.8192238388551250e-01  7.2814791675162183e-01  6.8062886650702137e-01  7.5819116225189409e-01  7.5306478361470319e-01  7.3728539754423306e-01  7.3064432250892708e-01  6.2761423860800214e-01  6.5860702510784941e-01  5.5240753170150725e-01  8.0512338881949552e-01  8.0114374450806791e-01  8.0528931085017041e-01  7.5141620788035979e-01  6.7560564319200178e-01  6.2862067049236869e-01  8.6416175405013762e-01  8.3295892764348867e-01  6.7394574777726002e-01  7.5566022151899981e-01  4.0044806304256220e-01  5.0856355350272509e-01  7.9028822036808499e-01  7.5578433247937804e-01  7.1274521397695112e-01  7.1588201541325591e-01  9.9293645306008738e-01  9.9665403454252877e-01  9.2676528610660835e-01  8.9323314892363370e-01  9.3306671312808820e-01  8.9072005902888884e-01  7.2197024032682411e-01  7.9628015956199572e-01  8.7033907534833777e-01  8.7339353042933299e-01  8.7808569908503764e-01  9.1863372525024212e-01  8.5878411516961850e-01  8.1198347216973676e-01  6.0879197158397635e-01  6.3502221719621610e-01  5.9203853099711723e-01  8.6893949357694966e-01  8.7046360213974783e-01  1.7629131404324583e-01  3.3037679004987791e-01  2.8453251549451175e-01  2.6663341326675849e-01  2.1430866088341874e-01  0.0000000000000000e+00  1.8556510677392157e-01  6.8039591051331483e-01  6.7847362178807191e-01  8.3937119428202056e-01  7.9295251883248807e-01  9.1185317126702814e-01  9.0137762632430474e-01  8.6482125002584420e-01  8.9196928824679533e-01  8.5224681954115578e-01  7.6394662616324316e-01  7.7401315192621267e-01  7.2136348782399162e-01  6.5064557666410605e-01  9.9665403454252877e-01  8.5986829193471848e-01  8.7447755036244834e-01  6.9562561681108903e-01  7.5390409698884397e-01  8.2385440784658426e-01  7.2602379218582869e-01  7.5580652323169062e-01  8.9285686979528145e-01  9.9665403454252888e-01  9.9665403454252877e-01  9.9665403454252888e-01  9.9665403454252877e-01  9.9665403454252877e-01  9.9665403454252877e-01  9.9665403454252888e-01  9.9665403454252888e-01  9.9665403454252888e-01  9.2911134772966741e-01  9.9665403454252866e-01  8.9709295581919490e-01  9.9665403454252877e-01  7.4057461398602786e-01  4.0905789511022889e-01  6.2348635674660913e-01  7.0671545722688611e-01  7.0252392219132731e-01  6.4573186447134401e-01  9.9665403454252877e-01  7.0048427085275411e-01  6.9614845803723968e-01  3.4048448747283155e-01  6.5028195775798481e-01  6.6631451172199785e-01  2.1518826709046421e-01  1.6725538769838960e-01  1.4747460429393333e-01  4.0931270475843068e-01  3.7487363437184956e-01  2.6337558796512461e-01  0.0000000000000000e+00  3.0885833775430638e-01  9.9665403454252866e-01  8.2868454145694626e-01  9.9665403454252877e-01  5.9923715961515234e-01  0.0000000000000000e+00  9.6282044012845402e-01  8.7936150574979255e-01  6.9181513065028233e-01  9.9665403454252877e-01  6.1969960071067909e-01  9.9665403454252877e-01  3.0598994606451224e-01  5.6274630974368989e-01  5.7991405435745647e-01  4.1879758782083604e-01  6.1301924797056750e-01  8.5725811318949940e-01  0.0000000000000000e+00  3.4865529662537081e-01  0.0000000000000000e+00  0.0000000000000000e+00  0.0000000000000000e+00  0.0000000000000000e+00  8.8088817728960445e-01  8.2501960360637527e-01  9.9665403454252866e-01  5.2510775977475510e-01  6.8018313750588133e-01  6.2965893602175182e-01  9.9665403454252877e-01  8.6916984078545623e-01  6.6623347993897064e-01  9.9665403454252888e-01  9.3990466193432221e-01  3.7013771444459515e-01  5.1619900626674708e-01  0.0000000000000000e+00  8.2651838783581844e-01  6.8983042664986116e-01  1.7699122097826883e-01  1.6775792827027217e-01  1.7393133811186223e-01  9.2711215397382563e-01  8.4888167966712169e-01  9.9665403454252888e-01  9.6370675864893318e-01  9.9665403454252877e-01  6.0585223858456105e-01  4.8048541178325088e-01  9.9665403454252877e-01  9.9665403454252866e-01  8.9381353660938889e-01  9.0868627153745551e-01  9.6932724935612047e-01  7.8960623946053143e-01  6.4481070810588936e-01  0.0000000000000000e+00  3.7898508047705898e-01  9.9665403454252888e-01  2.2443388728340732e-01  3.4264249809489622e-01  3.5829824441650598e-01  7.2294845734326674e-01  7.1852637133903108e-01  7.5199215098363448e-01  9.4656277553900858e-01  9.5712548310824030e-01  9.2665679264171674e-01  2.5080261144590671e-01  3.9861645238731175e-01  1.4251370494871138e-01  5.6537686628351347e-01  4.5242773012011078e-01  8.7312909526191518e-01  9.2101081128304307e-01  7.3136584721686948e-01  3.3215628060657471e-01  4.8184628227863474e-01  9.9665403454252866e-01  9.5315322783390755e-01  9.9665403454252888e-01  9.6593160038975057e-01  7.0913040267129357e-01  7.0202303014012357e-01  1.4621155091985499e-01  2.1977810301445164e-01  7.2003516137999268e-01  9.9665403454252877e-01  9.9665403454252888e-01  8.3610510168535740e-02  5.9078903503203703e-02  7.8669704180456312e-01  3.8111852491950410e-01  5.3821841026240969e-01  0.0000000000000000e+00  5.4629340177582764e-01  9.6260907857603151e-01  9.9665403454252866e-01  8.9530067614200348e-01  9.0415338677488588e-01  9.5377969405810259e-01  7.3721287555278525e-01  7.8012579657355197e-01  8.9686859601930546e-01  9.9665403454252866e-01  8.5360900103217385e-01  8.2448752240612810e-01  6.5335895344733341e-01  7.2678015832178711e-01  7.9334405636102201e-01  7.5118848967144869e-01  4.9002206247166491e-01  5.2485949224024286e-01  7.8707630481879243e-01  7.1097611520290871e-01  8.8175446725631401e-01  9.9665403454252888e-01  8.4392758774056709e-01  7.6851080256442528e-01  8.2736152795135831e-01  9.0606423211992693e-01  7.7372431100271888e-01  5.8970171564871665e-01  5.7542563719329076e-01  8.0362504246665578e-01  8.1483206936926678e-01  5.6370613959491656e-01  8.8830478815243530e-01  5.4816357876199806e-01  9.4354928282634287e-01  9.9665403454252877e-01  7.2235988499224713e-01  8.2092429631802788e-01  9.1823046929403651e-01  9.7319339455765208e-02  9.9665403454252866e-01  7.6130132427465169e-01  8.7259108851288580e-01  9.1065370126927347e-01  7.6760731837182805e-01  7.7345485711577222e-01  7.8687677364078468e-01  1.5614297800920840e-01  8.9104497566780894e-01  9.3779614321725957e-01  9.3781927156707245e-02  6.8150100896144872e-02  8.7728797202533504e-01  9.9665403454252866e-01  6.3203228148901114e-01  7.1847635320416414e-01  9.6624730037387263e-01  9.2407708690471291e-01  8.9845737773624268e-01  8.4930318655026082e-01  2.6022671227801136e-01  2.4902522710496636e-01  7.8484134065147237e-01  1.0262339194873739e-01  7.9772349925228270e-01  5.7632668320462155e-01  8.8985883194733528e-01  8.2281024260403979e-01  2.6186663147044964e-01  0.0000000000000000e+00  3.4207311296306275e-01  1.7820052134459904e-01  </DataArray> 
</PointData> 
</Piece>
</UnstructuredGrid>
</VTKFile>