<?xml version="1.0"?>
<VTKFile type="UnstructuredGrid"  version="0.1"  >
<UnstructuredGrid>
<Piece  NumberOfPoints="458" NumberOfCells="832">
<Points>
<DataArray  type="Float64"  NumberOfComponents="3"  format="ascii">1.89999999851 0.173205083338 0  1.100000014951 1.558845700916 0  1.899999976859 -0.173205070838 0  1.100000014951 -1.558845700916 0  0.79999999702 -1.732050782569 0  -0.79999999702 -1.732050776482 0  -1.100000014951 -1.558845700916 0  -1.899999976859 -0.173205070838 0  -1.79999999702 0 0  -1.900000020161 0.173205095838 0  -1.099999993301 1.558845688416 0  -0.79999999702 1.732050776482 0  0.79999999702 1.732050782569 0  0.319999992847 0 0  1.800000000564919 0.3464101605351311 0  1.700000002620031 0.5196152377323734 0  1.600000004675143 0.692820314929615 0  1.500000006730255 0.8660253921268568 0  1.400000008785367 1.039230469324099 0  1.300000010840478 1.212435546521341 0  1.200000012895589 1.385640623718584 0  1.826794919787441 0.1000000069028046 0  1.79999999702 1.250015836376237e-08 0  1.826794907287283 -0.099999985251895 0  1.20000001289601 -1.385640623718855 0  1.300000010840887 -1.212435546521633 0  1.400000008785764 -1.039230469324411 0  1.50000000673064 -0.8660253921271891 0  1.600000004675517 -0.6928203149299665 0  1.700000002620394 -0.5196152377327439 0  1.800000000565272 -0.3464101605355203 0  1.000000010135792 -1.532050773502 0  0.9000000026047366 -1.558845690780259 0  0.8267949163226551 -1.63205077558038 0  -0.5999999977650006 -1.732050807569 0  -0.3999999985100012 -1.732050807569 0  -0.1999999992550012 -1.732050807569 0  -1.110223024625157e-15 -1.732050807569001 0  0.199999999254999 -1.732050807569001 0  0.3999999985099993 -1.732050807569001 0  0.5999999977649997 -1.732050807569001 0  -0.8267949186052803 -1.632050771626757 0  -0.9000000052404853 -1.558845689258509 0  -1.000000011657542 -1.532050773502 0  -1.80000000056484 -0.3464101605352689 0  -1.700000002619963 -0.5196152377324909 0  -1.600000004675086 -0.6928203149297129 0  -1.50000000673021 -0.8660253921269347 0  -1.400000008785332 -1.039230469324158 0  -1.300000010840455 -1.21243554652138 0  -1.200000012895578 -1.385640623718604 0  -1.858578628397188 -0.141421345086162 0  -1.826794910412323 -0.09999999066462284 0  -1.8068148302461 -0.05176380375471544 0  -1.806814833481379 0.05176381582894065 0  -1.82679492291248 0.1000000123155314 0  -1.858578654914027 0.1414213716030013 0  -1.200000012896172 1.385640623718575 0  -1.300000010841052 1.212435546521347 0  -1.400000008785931 1.039230469324121 0  -1.500000006730811 0.8660253921268936 0  -1.600000004675691 0.6928203149296657 0  -1.700000002620571 0.5196152377324381 0  -1.800000000565452 0.3464101605352095 0  -0.9999999929079547 1.532050773502 0  -0.8999999944154055 1.558845695508372 0  -0.8267949154803489 1.632050777039297 0  0.5999999977650006 1.732050807569 0  0.3999999985100012 1.732050807569 0  0.1999999992550012 1.732050807569 0  1.110223024625157e-15 1.732050807569 0  -0.199999999254999 1.732050807569 0  -0.3999999985099993 1.732050807569 0  -0.5999999977649997 1.732050807569 0  0.8267949163226553 1.63205077558038 0  0.9000000026047372 1.558845690780259 0  1.000000010135792 1.532050773502 0  0.2262741649217603 0.2262741649217604 0  -1.225141956270872e-16 0.319999992847 0  -0.2262741649217606 0.2262741649217602 0  -0.319999992847 -3.871369352296243e-16 0  -0.2262741649217604 -0.2262741649217604 0  -3.43000132995988e-16 -0.319999992847 0  0.2262741649217602 -0.2262741649217606 0  -1.32403227008249 -0.1655481618264791 0  -0.6559545001721463 0.834831333527045 0  -0.6191324613560272 -0.8741963010775502 0  0.6518296435701447 -0.7791739169485039 0  0.5632210527941763 0.8021260071304711 0  1.130293756453899 -0.1279621763024616 0  -1.461712362090102 0.1190783395122679 0  9.899570052596118e-10 1.071362033067026 0  -3.183528995975848e-10 -1.071362032187092 0  -0.9173861017199769 0.2603195491201329 0  1.074949847941503 0.460358358492222 0  -0.8065588731879085 -0.3159356407839176 0  -1.569722542613223 -0.1093617800402951 0  -1.673769442513438 -0.2626283701225128 0  -0.5635866351940764 1.242851209417302 0  -0.5598007095572424 -1.251573502084433 0  0.5638384137458936 -1.234893993876831 0  0.5573095865749496 1.237225622765117 0  1.389206549287774 0.1108386526553084 0  1.036555967380581 -0.6425789452392957 0  1.481102457895208 -0.2057972302793381 0  -1.156711300658747 -0.4893931744805272 0  -0.9041757277480991 1.159522207920891 0  -0.9041757295712607 -1.159522202691768 0  0.9041757291274908 -1.15952220396478 0  0.8918105025079943 1.101608161990076 0  -1.059325271771506 0.6559214418832671 0  0.6410368259045096 -0.3487674155795288 0  0.6787218978266278 0.3574434174696062 0  -1.631838781633664 0.2884164889910588 0  1.634220711342343 0.2159440448888993 0  -0.4844594889400557 0.404353903131473 0  -0.466832278464886 -0.4305270217586601 0  0.1830450209317946 0.7132950468466426 0  0.185506562858873 -0.7157604202338106 0  -0.2117235312324399 0.7157007805003385 0  -0.6364741358352903 1.522169026678317 0  0.6364741422703739 -1.522169026310948 0  0.6364741265906544 1.522169047552075 0  -0.6364741298905381 -1.522169045769297 0  1.153245653969795 0.8125435811252458 0  -1.675290235500546 0.08173492774153664 0  -1.716846627169645 -0.09546304681612794 0  -0.2162552305693515 -1.404671790267723 0  0.2222638991767358 1.393455111054298 0  -0.2136026320640432 -0.7613804003943083 0  -1.350126001035187 0.4222907150240823 0  0.2266518796062817 -1.398690222581374 0  -0.2254469940828132 1.399899560806989 0  0.7727797158409135 -0.0346573635232891 0  -1.202472302245696 0.09231908130098411 0  1.389104166823814 0.4728013220705489 0  1.306408918641911 -0.5218831830269506 0  -1.118393238467754 -0.8595765265729055 0  -1.483332104487766 -0.3410763668055316 0  -1.000000021673877 -1.36020781303683 0  1.000000018844721 -1.360207814957552 0  1.000000018844257 1.360207814957642 0  -1.000000010053948 1.360207820925555 0  1.096763761276131 0.1659251913444485 0  0.3133386268227811 1.031331000374428 0  0.329680055380664 -1.007007473240028 0  1.691035586012954 -0.178380648964582 0  1.59692213245873 -0.006233856742581054 0  -0.3286579601255153 1.042940983465423 0  1.135377526486168 -0.9369518106758185 0  -0.6666609353928488 -0.0347164408773531 0  -1.02421962834045 -0.1284425332113929 0  -0.8388083608581667 -0.6035800904860518 0  -0.7906711369348565 -1.379316015040293 0  0.7949696095403955 1.363779517252508 0  -0.7906711479877582 1.379316033299444 0  0.790671153106679 -1.379316026272514 0  -0.7794313524841043 0.5335251661142921 0  0.3179916877369648 -0.3906878064959698 0  -1.132329475310357 0.9597530835481207 0  0.8706169569015501 0.6760387441929983 0  -0.3145384984381669 -1.075380959373884 0  -1.772834810415322 -0.2229415465613838 0  0.306988950262191 0.3966495573020577 0  -1.431999086511746 -0.5809716244878878 0  0.9242220838258843 -0.3771439842560163 0  -1.761048750668734 0.2252040258758886 0  -1.059929201982837 0.1763193152105585 0  -1.276299151640442 0.2573048981625332 0  -1.133756051377582 0.3413051320721076 0  1.259750152870836 -0.008561761823576611 0  1.435154503591491 -0.04747928881201485 0  1.305698107174553 -0.1668797032908999 0  0.7880258636980146 -0.5781589506022601 0  0.9803890256032326 -0.509861464747656 0  0.8441928054753629 -0.7108764310938998 0  -1.204725636403347 0.5391060784536746 0  -0.9883556867457415 0.4581204955017 0  1.085966746933375 -0.7897653779575571 0  0.8936035850281565 -0.8580628638121612 0  1.767110354926075 0.1945745641133941 0  1.667110356981187 0.3677796413106363 0  1.695517794316674 -0.3489979433486629 0  1.7955177814361 -0.1757928599010775 0  0.6464332347373272 -0.5639706662640164 0  0.7826294548651971 -0.3629556999177725 0  -0.8576398859718259 0.745376387705156 0  -1.095827373540931 0.8078372627156939 0  -0.8941419877412518 0.8972922085375828 0  1.39375568826856 -0.3638402066531443 0  1.218351337547905 -0.3249226796647061 0  -0.8687628499118905 -0.8668864138252279 0  -0.97860079966296 -0.7315783085294787 0  -0.7289704111070971 -0.738888195781801 0  -1.018252601529228 1.059637645734506 0  -0.7800651139601227 0.997176770723968 0  0.7780026863488176 -0.969348060456642 0  1.019776627806829 -1.048237007320299 0  -0.7616540954636442 -1.016859251884659 0  -1.011284484019507 -1.009549364632337 0  -1.05000001250262 1.459526760920679 0  -1.1500000104475 1.286321683723451 0  -1.150000016257167 -1.286321679779105 0  -1.050000018312423 -1.459526756976441 0  1.150000014842367 1.286321680739491 0  1.050000016897479 1.459526757936735 0  1.050000016897927 -1.459526757936815 0  1.150000014842804 -1.286321680739593 0  1.115315501233898 -0.4495135836414834 0  1.027257920139891 -0.252553080279239 0  -0.5182370671726448 1.627109917123658 0  -0.718237066427645 1.627109901580158 0  0.5182370703901866 -1.627109916939975 0  0.718237069645187 -1.627109904439974 0  -0.7182370634552688 -1.627109926669149 0  -0.5182370642002696 -1.627109926669149 0  0.7182370618053273 1.627109927560538 0  0.5182370625503276 1.627109927560538 0  -0.3880279700632969 -1.328122646176078 0  -0.4263646802299448 -1.46342041801851 0  -0.5981374197238902 -1.386871273926865 0  0.3897867428758426 1.315340366909707 0  0.4293690128836951 1.457812079303186 0  0.5968918565828019 1.379697335158596 0  1.085856804608817 0.3131417749183352 0  0.8877428295513794 0.2616843044070273 0  0.8768358728840651 0.4089008879809141 0  -0.3081276145396763 -1.568361298918362 0  0.3111319488433684 1.562752959311649 0  -1.17412594921147 -0.146995347518936 0  -1.090465464499599 -0.30891785384596 0  -1.240371785370618 -0.3274706681535031 0  -1.320021702573257 -0.4152347706430294 0  -1.403682187285128 -0.2533122643160053 0  -1.751042579206513 0.09086747002853399 0  -1.737645116260273 0.04086746387076829 0  0.9347717385585221 0.06563391391057971 0  0.7257508068337706 0.1613930269731585 0  0.4849106656535547 -0.5849308617222369 0  0.4795142568207371 -0.3697276110377493 0  0.09275328142943629 -0.5178802065404053 0  -0.01404803460258508 -0.7385704103140595 0  -0.1068013160320218 -0.5406901
[...]
<PointData  Scalars="f_10"> 
<DataArray  type="Float64"  Name="f_10"  format="ascii">8.1154281469659972e-01  5.7228013781417664e-01  8.8455699479159600e-01  9.4217676844118858e-01  9.7345362213940101e-01  9.6526977231362521e-01  8.1981890910123700e-01  8.4204480408124993e-01  3.8111478931507620e-01  9.5696696858149230e-02  9.2919234055354949e-01  9.9266456125324887e-01  7.8733534221027424e-01  8.7790671429487810e-01  7.6491846607295466e-01  6.6397386986326690e-01  5.2768034870062797e-01  3.8445264238045301e-01  3.0644385551240322e-01  3.6535159304461173e-01  4.9180016165115220e-01  8.2955359223451386e-01  8.6300592067533288e-01  8.8107806019596768e-01  9.3285214052329579e-01  9.1870958595993668e-01  9.0549865734386747e-01  8.9587311252569968e-01  8.9118988439370050e-01  8.9059641236052522e-01  8.8938830426630833e-01  9.4718044374953392e-01  9.5933230875598441e-01  9.6999689690606983e-01  9.6021096224530800e-01  9.5373908646106476e-01  9.5738010574769239e-01  9.6626047222060663e-01  9.7613874914943433e-01  9.8271789262609055e-01  9.7988532604052359e-01  9.6014234696618839e-01  9.1109427461864578e-01  8.4473187533928917e-01  4.5854733065171599e-01  1.8371255022264468e-01  2.8080959752649393e-01  4.5311176520871060e-01  5.8549593848479820e-01  6.8517093297299447e-01  7.6794915614871140e-01  8.7061697589550247e-01  8.8668507762675064e-01  6.6900571676490650e-01  1.7676610464888468e-01  9.9669203794312586e-02  9.2241239143684026e-02  9.1288025439192511e-01  8.9499108802256377e-01  8.9499627665413806e-01  8.8953197110266646e-01  7.0212189935536551e-01  3.5847766306253565e-01  1.4907255563536531e-01  9.3772628549353565e-01  9.6100194637910108e-01  9.8490169567721286e-01  8.3525084551278928e-01  8.9598402348417916e-01  9.4175916580200425e-01  9.7449234925783634e-01  9.9417187757415260e-01  9.9847299796679967e-01  9.9819151953344010e-01  7.6285543413669321e-01  6.9142332850578447e-01  6.0785418015689752e-01  9.0797833158624919e-01  9.7443394702518793e-01  9.9999993174396618e-01  9.9999993174396640e-01  9.8806670427779475e-01  9.3772340694826939e-01  9.1760745445813585e-01  2.0748797598342281e-01  8.1487361674108638e-01  5.7401354871497356e-01  9.3800726234672416e-01  8.1941770153838456e-01  8.7226948346828737e-01  6.9038072981121038e-02  9.8718759413688695e-01  9.7458173469010911e-01  3.2268457945469403e-01  6.1358921726627358e-01  5.1392324762899810e-01  3.0040255201429905e-01  4.1512907800638821e-01  9.6668741538642078e-01  8.9151759416170850e-01  9.8268635630523482e-01  9.9999993174396640e-01  9.9999993174396640e-01  8.9965283150854358e-01  9.1030965634591821e-01  5.0595862272623404e-01  8.9950662652235325e-01  7.6413474652719837e-01  9.4012342747118482e-01  5.1778986275777994e-01  6.9630087295653109e-01  8.9522395602100890e-01  7.8052516937289007e-01  1.0738147102840129e-01  8.0691112569128265e-01  6.4535943680116725e-01  9.9999993174396629e-01  9.9999993174396629e-01  9.9999993174396629e-01  9.9999993174396629e-01  9.9999993174396629e-01  9.8140132426122506e-01  8.2109853731022153e-01  9.6303588245963101e-01  0.0000000000000000e+00  0.0000000000000000e+00  5.9489222985652324e-01  9.5413258309564297e-01  9.5911088687638646e-01  7.8331862225543825e-01  3.6295496240377362e-01  9.8274699692549983e-01  9.9398782948979902e-01  8.4229230810099676e-01  1.5234003414417488e-01  6.2040569064557338e-01  8.9170702088544851e-01  6.2797621606417853e-01  1.7696802355902205e-01  8.0993374028776721e-01  9.4233070220456860e-01  5.6594033376216035e-01  9.2523985616539717e-01  7.8954701404065619e-01  9.9999993174396629e-01  9.9999993174396618e-01  8.9083359266955675e-01  8.9560653581637395e-01  9.5135340486020592e-01  9.1081153218140065e-01  0.0000000000000000e+00  0.0000000000000000e+00  7.6664043676761684e-01  8.9652218669104544e-01  7.1382109362456614e-01  9.6114123026203935e-01  9.6341314095203545e-01  5.9418384377428146e-01  9.3319177589781632e-01  8.6526410251619856e-01  5.5765416323049699e-01  9.6100000162403443e-01  6.6266459110817488e-01  9.1426098921299626e-01  2.6597513054394351e-01  8.8412568766434008e-01  9.8366420459227874e-02  2.4119707871182161e-01  1.7922886076487982e-01  3.5608010399140511e-01  8.9538916258339196e-01  9.9999993174396618e-01  9.0496453387698406e-01  9.0822631352868211e-01  8.9332123718877232e-01  9.1494529025341642e-01  5.9655704258576236e-01  5.0142760419138821e-01  9.0550153872625627e-01  9.2168729063942667e-01  8.0938166981787496e-01  7.3414461268838227e-01  8.9121992292906782e-01  8.8531940884014726e-01  9.1895807522596118e-01  8.8744063353830871e-01  7.3877743411034846e-01  8.0834759398141520e-01  8.1617532514955626e-01  8.9561866193406203e-01  8.8906983047959309e-01  6.7285231944830093e-01  6.9494289627792760e-01  5.7786440065233957e-01  8.7243428152040969e-01  8.6104033359165555e-01  9.3987796237290544e-01  9.2415241437674189e-01  7.2480420332566087e-01  6.9053204447277561e-01  9.2900312937863794e-01  9.0581884601570406e-01  7.4614455185374162e-01  8.1933235625820677e-01  4.5541568289268491e-01  5.7258926719389236e-01  9.4250156387022499e-01  9.2940205447636626e-01  8.8872644674266976e-01  8.7417823028358976e-01  9.9884565210046772e-01  9.9999993174396629e-01  9.8382544043390630e-01  9.7479493893859770e-01  9.6814036831888495e-01  9.5501109143934837e-01  7.9352222997058697e-01  8.6313915473590219e-01  9.3546234832199049e-01  9.4355100571074213e-01  9.2713423427789687e-01  9.4907541706897880e-01  9.0890710165092359e-01  8.5811010772065277e-01  7.1225166416101948e-01  7.5460091126863160e-01  6.9604820647970755e-01  9.5240205516521736e-01  9.2480322207805687e-01  1.8538329670437725e-01  3.4022268109955811e-01  2.9752874332442952e-01  2.8151159359030831e-01  2.2354361353609867e-01  0.0000000000000000e+00  1.8701134269463171e-01  8.1483124160119647e-01  8.0955674098991437e-01  9.4013738838853034e-01  9.1337670034508833e-01  9.4535094133649544e-01  9.2282354882493089e-01  8.8786458848547656e-01  9.3332745303186870e-01  8.9940732706623105e-01  8.0372803810931304e-01  8.2699438329617248e-01  7.5576928786695341e-01  6.8745554630353634e-01  9.9999993174396629e-01  9.6039556854012309e-01  9.6194583111848153e-01  7.7144879456676163e-01  8.4552740095111567e-01  8.7663926593183972e-01  8.4428035081812314e-01  8.3896088603310437e-01  9.6295188587097613e-01  9.9999993174396640e-01  9.9999993174396629e-01  9.9999993174396629e-01  9.9999993174396640e-01  9.9999993174396640e-01  9.9999993174396629e-01  9.9999993174396640e-01  9.9999993174396618e-01  9.9999993174396629e-01  9.8355450760294771e-01  9.9999993174396629e-01  9.2485141173277952e-01  9.9999993174396618e-01  8.3992344632880178e-01  4.4749858169310364e-01  6.8265263822655420e-01  8.9354451826262515e-01  8.9776237579050355e-01  6.5510185837761137e-01  9.9999993174396629e-01  9.0163900532321783e-01  8.9315131797585334e-01  3.4578459282487461e-01  6.5525240723434830e-01  6.7304691106918024e-01  2.2277875947623532e-01  1.7164264782437827e-01  1.5379312770048120e-01  4.8589770391751314e-01  4.4362290406385613e-01  3.1464698379742134e-01  0.0000000000000000e+00  3.5505840856790377e-01  9.9999993174396618e-01  8.5267929054486513e-01  9.9999993174396629e-01  6.0712490989070134e-01  0.0000000000000000e+00  9.8223453633616842e-01  9.7009511079068134e-01  7.5978237523568626e-01  9.9999993174396629e-01  6.2939288375734503e-01  9.9999993174396629e-01  3.0867232089256263e-01  5.6576771684906890e-01  6.2879996331853438e-01  4.5545788992936709e-01  6.2277551447390833e-01  8.9961033797321655e-01  0.0000000000000000e+00  3.7191873710595086e-01  0.0000000000000000e+00  0.0000000000000000e+00  0.0000000000000000e+00  0.0000000000000000e+00  9.2850481577263799e-01  9.1654353347427520e-01  9.9999993174396629e-01  5.2895230587508013e-01  7.6026731513721102e-01  7.1945049027102681e-01  9.9999993174396629e-01  9.1570018903259487e-01  7.2039808474758549e-01  9.9999993174396629e-01  9.6795996594354283e-01  4.3507298126211436e-01  6.0264911347861738e-01  0.0000000000000000e+00  8.6592312715027164e-01  7.3430992226066971e-01  1.9102279531937461e-01  1.7446202154769117e-01  1.8825586670354200e-01  9.5418120297847442e-01  8.9289294644975070e-01  9.9999993174396629e-01  9.7956476725009844e-01  9.9999993174396629e-01  6.9630835874803665e-01  5.6086288639124460e-01  9.9999993174396629e-01  9.9999993174396640e-01  9.6580893962077830e-01  9.2941992398038287e-01  9.8045409246818471e-01  8.5710772543989566e-01  7.3189838717294553e-01  0.0000000000000000e+00  4.0751059249347382e-01  9.9999993174396618e-01  2.6255229848294909e-01  3.8756310475784994e-01  3.6613305817087632e-01  8.6087786836749713e-01  8.7032799616529666e-01  8.8625545054565291e-01  9.8016716312649810e-01  9.8789455365511358e-01  9.7754218574814322e-01  2.5440137574631572e-01  4.0334274909577733e-01  1.5266895503142808e-01  6.0069792024667956e-01  4.9381259804573269e-01  9.6102326268593918e-01  9.6108721849662548e-01  8.5044458101944198e-01  3.6878163679350545e-01  5.3620016572307505e-01  9.9999993174396629e-01  9.7466904004034371e-01  9.9999993174396640e-01  9.8543085626564675e-01  8.6626155954762618e-01  8.4793559780658079e-01  1.5482443848680658e-01  2.2531062314546740e-01  7.2428855065724884e-01  9.9999993174396640e-01  9.9999993174396629e-01  8.5646391568282090e-02  6.0615840432630373e-02  9.0297124924068439e-01  3.8683311087663436e-01  5.4317946820850138e-01  0.0000000000000000e+00  6.3654264844702857e-01  9.8359621501021699e-01  9.9999993174396640e-01  9.6855564674406902e-01  9.6507468212877212e-01  9.8002287632094875e-01  8.9376833873089256e-01  9.0176621981872040e-01  9.7296973312837420e-01  9.9999993174396618e-01  9.1578401599025094e-01  8.9553445066557247e-01  7.2399017471174754e-01  7.8995631756503981e-01  9.4142388073102912e-01  9.2653262260185321e-01  5.4001059567812781e-01  5.3009536960988224e-01  8.8543635753722072e-01  8.9152872574138042e-01  9.3161840524758233e-01  9.9999993174396629e-01  8.9131338751877653e-01  8.2444230185078615e-01  9.5187573588065166e-01  9.7480034133445459e-01  8.1454857964523231e-01  6.3720829509884624e-01  6.4273976078431827e-01  8.5684079172921201e-01  9.5018896446355872e-01  6.2820736180221959e-01  9.4197528467792468e-01  5.8592872252481321e-01  9.7793102137113008e-01  9.9999993174396629e-01  9.1414792088568453e-01  8.8721950946401651e-01  9.4477709843142887e-01  9.9625748011403087e-02  9.9999993174396629e-01  8.8084454266606460e-01  9.3670131030149950e-01  9.5132971176974146e-01  8.7195285825051883e-01  8.5856956057815270e-01  7.9116938381369739e-01  1.7020009852976778e-01  9.5094222115892224e-01  9.7416166590804187e-01  9.6310961315625304e-02  7.0002047231541950e-02  9.1305012202047631e-01  9.9999993174396629e-01  6.9629481985602792e-01  7.7807900939487940e-01  9.8351428960128506e-01  9.6113176275075907e-01  9.7441194997625591e-01  9.6066725495762451e-01  2.6715001039360364e-01  2.5472920425681012e-01  8.9320365957832804e-01  1.0555251411353310e-01  8.5042335198226293e-01  6.3517793629570529e-01  9.4049703615800717e-01  9.5180683711047109e-01  2.6767648843327208e-01  0.0000000000000000e+00  3.4794958333618958e-01  1.8305123649266325e-01  </DataArray> 
</PointData> 
</Piece>
</UnstructuredGrid>
</VTKFile>