<?xml version="1.0"?>
<VTKFile type="UnstructuredGrid"  version="0.1"  >
<UnstructuredGrid>
<Piece  NumberOfPoints="458" NumberOfCells="832">
<Points>
<DataArray  type="Float64"  NumberOfComponents="3"  format="ascii">1.89999999851 0.173205083338 0  1.100000014951 1.558845700916 0  1.899999976859 -0.173205070838 0  1.100000014951 -1.558845700916 0  0.79999999702 -1.732050782569 0  -0.79999999702 -1.732050776482 0  -1.100000014951 -1.558845700916 0  -1.899999976859 -0.173205070838 0  -1.79999999702 0 0  -1.900000020161 0.173205095838 0  -1.099999993301 1.558845688416 0  -0.79999999702 1.732050776482 0  0.79999999702 1.732050782569 0  0.319999992847 0 0  1.800000000564919 0.3464101605351311 0  1.700000002620031 0.5196152377323734 0  1.600000004675143 0.692820314929615 0  1.500000006730255 0.8660253921268568 0  1.400000008785367 1.039230469324099 0  1.300000010840478 1.212435546521341 0  1.200000012895589 1.385640623718584 0  1.826794919787441 0.1000000069028046 0  1.79999999702 1.250015836376237e-08 0  1.826794907287283 -0.099999985251895 0  1.20000001289601 -1.385640623718855 0  1.300000010840887 -1.212435546521633 0  1.400000008785764 -1.039230469324411 0  1.50000000673064 -0.8660253921271891 0  1.600000004675517 -0.6928203149299665 0  1.700000002620394 -0.5196152377327439 0  1.800000000565272 -0.3464101605355203 0  1.000000010135792 -1.532050773502 0  0.9000000026047366 -1.558845690780259 0  0.8267949163226551 -1.63205077558038 0  -0.5999999977650006 -1.732050807569 0  -0.3999999985100012 -1.732050807569 0  -0.1999999992550012 -1.732050807569 0  -1.110223024625157e-15 -1.732050807569001 0  0.199999999254999 -1.732050807569001 0  0.3999999985099993 -1.732050807569001 0  0.5999999977649997 -1.732050807569001 0  -0.8267949186052803 -1.632050771626757 0  -0.9000000052404853 -1.558845689258509 0  -1.000000011657542 -1.532050773502 0  -1.80000000056484 -0.3464101605352689 0  -1.700000002619963 -0.5196152377324909 0  -1.600000004675086 -0.6928203149297129 0  -1.50000000673021 -0.8660253921269347 0  -1.400000008785332 -1.039230469324158 0  -1.300000010840455 -1.21243554652138 0  -1.200000012895578 -1.385640623718604 0  -1.858578628397188 -0.141421345086162 0  -1.826794910412323 -0.09999999066462284 0  -1.8068148302461 -0.05176380375471544 0  -1.806814833481379 0.05176381582894065 0  -1.82679492291248 0.1000000123155314 0  -1.858578654914027 0.1414213716030013 0  -1.200000012896172 1.385640623718575 0  -1.300000010841052 1.212435546521347 0  -1.400000008785931 1.039230469324121 0  -1.500000006730811 0.8660253921268936 0  -1.600000004675691 0.6928203149296657 0  -1.700000002620571 0.5196152377324381 0  -1.800000000565452 0.3464101605352095 0  -0.9999999929079547 1.532050773502 0  -0.8999999944154055 1.558845695508372 0  -0.8267949154803489 1.632050777039297 0  0.5999999977650006 1.732050807569 0  0.3999999985100012 1.732050807569 0  0.1999999992550012 1.732050807569 0  1.110223024625157e-15 1.732050807569 0  -0.199999999254999 1.732050807569 0  -0.3999999985099993 1.732050807569 0  -0.5999999977649997 1.732050807569 0  0.8267949163226553 1.63205077558038 0  0.9000000026047372 1.558845690780259 0  1.000000010135792 1.532050773502 0  0.2262741649217603 0.2262741649217604 0  -1.225141956270872e-16 0.319999992847 0  -0.2262741649217606 0.2262741649217602 0  -0.319999992847 -3.871369352296243e-16 0  -0.2262741649217604 -0.2262741649217604 0  -3.43000132995988e-16 -0.319999992847 0  0.2262741649217602 -0.2262741649217606 0  -1.32403227008249 -0.1655481618264791 0  -0.6559545001721463 0.834831333527045 0  -0.6191324613560272 -0.8741963010775502 0  0.6518296435701447 -0.7791739169485039 0  0.5632210527941763 0.8021260071304711 0  1.130293756453899 -0.1279621763024616 0  -1.461712362090102 0.1190783395122679 0  9.899570052596118e-10 1.071362033067026 0  -3.183528995975848e-10 -1.071362032187092 0  -0.9173861017199769 0.2603195491201329 0  1.074949847941503 0.460358358492222 0  -0.8065588731879085 -0.3159356407839176 0  -1.569722542613223 -0.1093617800402951 0  -1.673769442513438 -0.2626283701225128 0  -0.5635866351940764 1.242851209417302 0  -0.5598007095572424 -1.251573502084433 0  0.5638384137458936 -1.234893993876831 0  0.5573095865749496 1.237225622765117 0  1.389206549287774 0.1108386526553084 0  1.036555967380581 -0.6425789452392957 0  1.481102457895208 -0.2057972302793381 0  -1.156711300658747 -0.4893931744805272 0  -0.9041757277480991 1.159522207920891 0  -0.9041757295712607 -1.159522202691768 0  0.9041757291274908 -1.15952220396478 0  0.8918105025079943 1.101608161990076 0  -1.059325271771506 0.6559214418832671 0  0.6410368259045096 -0.3487674155795288 0  0.6787218978266278 0.3574434174696062 0  -1.631838781633664 0.2884164889910588 0  1.634220711342343 0.2159440448888993 0  -0.4844594889400557 0.404353903131473 0  -0.466832278464886 -0.4305270217586601 0  0.1830450209317946 0.7132950468466426 0  0.185506562858873 -0.7157604202338106 0  -0.2117235312324399 0.7157007805003385 0  -0.6364741358352903 1.522169026678317 0  0.6364741422703739 -1.522169026310948 0  0.6364741265906544 1.522169047552075 0  -0.6364741298905381 -1.522169045769297 0  1.153245653969795 0.8125435811252458 0  -1.675290235500546 0.08173492774153664 0  -1.716846627169645 -0.09546304681612794 0  -0.2162552305693515 -1.404671790267723 0  0.2222638991767358 1.393455111054298 0  -0.2136026320640432 -0.7613804003943083 0  -1.350126001035187 0.4222907150240823 0  0.2266518796062817 -1.398690222581374 0  -0.2254469940828132 1.399899560806989 0  0.7727797158409135 -0.0346573635232891 0  -1.202472302245696 0.09231908130098411 0  1.389104166823814 0.4728013220705489 0  1.306408918641911 -0.5218831830269506 0  -1.118393238467754 -0.8595765265729055 0  -1.483332104487766 -0.3410763668055316 0  -1.000000021673877 -1.36020781303683 0  1.000000018844721 -1.360207814957552 0  1.000000018844257 1.360207814957642 0  -1.000000010053948 1.360207820925555 0  1.096763761276131 0.1659251913444485 0  0.3133386268227811 1.031331000374428 0  0.329680055380664 -1.007007473240028 0  1.691035586012954 -0.178380648964582 0  1.59692213245873 -0.006233856742581054 0  -0.3286579601255153 1.042940983465423 0  1.135377526486168 -0.9369518106758185 0  -0.6666609353928488 -0.0347164408773531 0  -1.02421962834045 -0.1284425332113929 0  -0.8388083608581667 -0.6035800904860518 0  -0.7906711369348565 -1.379316015040293 0  0.7949696095403955 1.363779517252508 0  -0.7906711479877582 1.379316033299444 0  0.790671153106679 -1.379316026272514 0  -0.7794313524841043 0.5335251661142921 0  0.3179916877369648 -0.3906878064959698 0  -1.132329475310357 0.9597530835481207 0  0.8706169569015501 0.6760387441929983 0  -0.3145384984381669 -1.075380959373884 0  -1.772834810415322 -0.2229415465613838 0  0.306988950262191 0.3966495573020577 0  -1.431999086511746 -0.5809716244878878 0  0.9242220838258843 -0.3771439842560163 0  -1.761048750668734 0.2252040258758886 0  -1.059929201982837 0.1763193152105585 0  -1.276299151640442 0.2573048981625332 0  -1.133756051377582 0.3413051320721076 0  1.259750152870836 -0.008561761823576611 0  1.435154503591491 -0.04747928881201485 0  1.305698107174553 -0.1668797032908999 0  0.7880258636980146 -0.5781589506022601 0  0.9803890256032326 -0.509861464747656 0  0.8441928054753629 -0.7108764310938998 0  -1.204725636403347 0.5391060784536746 0  -0.9883556867457415 0.4581204955017 0  1.085966746933375 -0.7897653779575571 0  0.8936035850281565 -0.8580628638121612 0  1.767110354926075 0.1945745641133941 0  1.667110356981187 0.3677796413106363 0  1.695517794316674 -0.3489979433486629 0  1.7955177814361 -0.1757928599010775 0  0.6464332347373272 -0.5639706662640164 0  0.7826294548651971 -0.3629556999177725 0  -0.8576398859718259 0.745376387705156 0  -1.095827373540931 0.8078372627156939 0  -0.8941419877412518 0.8972922085375828 0  1.39375568826856 -0.3638402066531443 0  1.218351337547905 -0.3249226796647061 0  -0.8687628499118905 -0.8668864138252279 0  -0.97860079966296 -0.7315783085294787 0  -0.7289704111070971 -0.738888195781801 0  -1.018252601529228 1.059637645734506 0  -0.7800651139601227 0.997176770723968 0  0.7780026863488176 -0.969348060456642 0  1.019776627806829 -1.048237007320299 0  -0.7616540954636442 -1.016859251884659 0  -1.011284484019507 -1.009549364632337 0  -1.05000001250262 1.459526760920679 0  -1.1500000104475 1.286321683723451 0  -1.150000016257167 -1.286321679779105 0  -1.050000018312423 -1.459526756976441 0  1.150000014842367 1.286321680739491 0  1.050000016897479 1.459526757936735 0  1.050000016897927 -1.459526757936815 0  1.150000014842804 -1.286321680739593 0  1.115315501233898 -0.4495135836414834 0  1.027257920139891 -0.252553080279239 0  -0.5182370671726448 1.627109917123658 0  -0.718237066427645 1.627109901580158 0  0.5182370703901866 -1.627109916939975 0  0.718237069645187 -1.627109904439974 0  -0.7182370634552688 -1.627109926669149 0  -0.5182370642002696 -1.627109926669149 0  0.7182370618053273 1.627109927560538 0  0.5182370625503276 1.627109927560538 0  -0.3880279700632969 -1.328122646176078 0  -0.4263646802299448 -1.46342041801851 0  -0.5981374197238902 -1.386871273926865 0  0.3897867428758426 1.315340366909707 0  0.4293690128836951 1.457812079303186 0  0.5968918565828019 1.379697335158596 0  1.085856804608817 0.3131417749183352 0  0.8877428295513794 0.2616843044070273 0  0.8768358728840651 0.4089008879809141 0  -0.3081276145396763 -1.568361298918362 0  0.3111319488433684 1.562752959311649 0  -1.17412594921147 -0.146995347518936 0  -1.090465464499599 -0.30891785384596 0  -1.240371785370618 -0.3274706681535031 0  -1.320021702573257 -0.4152347706430294 0  -1.403682187285128 -0.2533122643160053 0  -1.751042579206513 0.09086747002853399 0  -1.737645116260273 0.04086746387076829 0  0.9347717385585221 0.06563391391057971 0  0.7257508068337706 0.1613930269731585 0  0.4849106656535547 -0.5849308617222369 0  0.4795142568207371 -0.3697276110377493 0  0.09275328142943629 -0.5178802065404053 0  -0.01404803460258508 -0.7385704103140595 0  -0.1068013160320218 -0.5406901
[...]
<PointData  Scalars="f_10"> 
<DataArray  type="Float64"  Name="f_10"  format="ascii">8.2038801147655782e-01  5.7613465664873909e-01  8.9711594067852973e-01  9.5626330178685570e-01  9.8008976994910124e-01  9.6691289186913976e-01  8.2311235021197382e-01  8.4208884965115149e-01  3.8114557423292539e-01  9.5751518290501159e-02  9.3203767520194936e-01  9.9297913563297235e-01  7.9103710341991806e-01  8.8833048442894436e-01  7.7331037196368557e-01  6.7181108846618254e-01  5.3451887352199479e-01  3.8961395071466387e-01  3.1010093724022419e-01  3.6869100910295544e-01  4.9546151887146206e-01  8.3850936872452675e-01  8.7284739975973258e-01  8.9270048641922195e-01  9.4880064016407895e-01  9.3707988277295395e-01  9.2553910542439788e-01  9.1629978789641298e-01  9.1053205160151029e-01  9.0760675061375828e-01  9.0363671350934704e-01  9.6007951808335912e-01  9.6934729457305180e-01  9.7746559948765732e-01  9.6276278694223072e-01  9.5754946927716111e-01  9.6183524401403886e-01  9.7063333497209137e-01  9.7992567984199630e-01  9.8620756539503307e-01  9.8474342040091523e-01  9.6151707151978294e-01  9.1293202232301518e-01  8.4762387384698001e-01  4.5871340418004763e-01  1.8414959602115633e-01  2.8223332078792085e-01  4.5568824602915575e-01  5.8895471487990014e-01  6.8904076151710192e-01  7.7166343523245540e-01  8.7065068695104864e-01  8.8670057557274162e-01  6.6903111138602445e-01  1.7679243316063384e-01  9.9703826142179930e-02  9.2290456558418693e-02  9.1604187528260028e-01  8.9808871869827656e-01  8.9726300718958396e-01  8.9055196502346412e-01  7.0250834676560292e-01  3.5868988598152596e-01  1.4917560591996401e-01  9.4021999731364247e-01  9.6257104846801167e-01  9.8552474607844365e-01  8.3863991687818962e-01  8.9872430352533528e-01  9.4368480566267310e-01  9.7547767433202170e-01  9.9442098500557419e-01  9.9854775744961632e-01  9.9827674955034384e-01  7.6652434226473121e-01  6.9510212281121142e-01  6.1163996549075139e-01  9.1404804581486354e-01  9.7571306580972572e-01  9.9999999772207293e-01  9.9999999772207293e-01  9.8835119203885735e-01  9.4026574635933724e-01  9.2543349713850209e-01  2.0784636662149247e-01  8.1707754889502193e-01  5.7518147817440557e-01  9.4910312811889475e-01  8.2234093713940093e-01  8.8467676038460807e-01  6.9109989648715814e-02  9.8755389261980520e-01  9.7637382723132204e-01  3.2379029042899282e-01  6.2119540677653551e-01  5.1406323405054932e-01  3.0057008318024320e-01  4.1528402871565706e-01  9.6741960659889981e-01  8.9395089813146322e-01  9.8649304697152784e-01  9.9999999772207304e-01  9.9999999772207282e-01  9.1740036833443195e-01  9.2141325587731260e-01  5.0683177430183468e-01  9.0211392907136190e-01  7.6720988873895735e-01  9.5367987203954119e-01  5.2021407865966152e-01  6.9814592270579301e-01  9.0819415136983905e-01  7.8934574762027143e-01  1.0745714090572241e-01  8.1456010662280487e-01  6.4629859631492070e-01  9.9999999772207293e-01  9.9999999772207293e-01  9.9999999772207293e-01  9.9999999772207304e-01  9.9999999772207282e-01  9.8595036013095272e-01  8.2420261678244844e-01  9.6480602228203383e-01  0.0000000000000000e+00  0.0000000000000000e+00  5.9495664394289727e-01  9.5782639460093477e-01  9.6039243274303765e-01  7.8374539750657191e-01  3.6344407912069415e-01  9.8511741867048164e-01  9.9421833869887322e-01  8.5526321514639470e-01  1.5278066336058482e-01  6.2757451370401229e-01  9.0977259453388082e-01  6.3072996020644900e-01  1.7721752701986918e-01  8.1312972978695186e-01  9.5613755338385342e-01  5.6946908920235240e-01  9.2794429341389395e-01  7.9915857398612944e-01  9.9999999772207293e-01  9.9999999772207293e-01  9.0275307367826918e-01  9.0318378400603982e-01  9.5223311603638083e-01  9.2947101651118091e-01  0.0000000000000000e+00  0.0000000000000000e+00  7.6734801306055389e-01  8.9842606379509893e-01  7.1684421638588836e-01  9.6248729267360023e-01  9.7221255703281062e-01  5.9609349037818726e-01  9.4020586197164824e-01  8.6781291299748120e-01  5.6280725667315035e-01  9.6240973902320570e-01  6.6275754360779704e-01  9.1885639755516368e-01  2.6712308891583175e-01  8.9984782239695227e-01  9.8431001725386560e-02  2.4199374163141177e-01  1.7968114463570806e-01  3.5709632886242815e-01  9.0317567029490142e-01  9.9999999772207304e-01  9.1578706445300950e-01  9.2291968966586613e-01  9.1011313145326800e-01  9.3020573867690859e-01  5.9763148967003965e-01  5.0302409781324320e-01  9.2390498391791231e-01  9.3719898944232161e-01  8.1797298373340344e-01  7.4214859618864082e-01  9.0595374155394537e-01  8.9769707612002858e-01  9.3127223087385835e-01  9.0203936214364799e-01  7.4119916268200303e-01  8.1046272705230582e-01  8.1882379778696768e-01  9.1100299306801580e-01  9.0428852052761033e-01  6.7503199650522760e-01  6.9668554535321403e-01  5.7900143651107250e-01  8.7531877823375437e-01  8.6349006384760207e-01  9.5226549907729852e-01  9.4071686461316528e-01  7.2714988921169588e-01  6.9367803206137058e-01  9.3178741045730118e-01  9.0898764540042676e-01  7.4990435503283726e-01  8.2257010595674884e-01  4.5888104021148823e-01  5.7636703695330427e-01  9.5645269764655227e-01  9.4590913454553460e-01  9.0573848365574294e-01  8.8900422542207713e-01  9.9890188725128537e-01  9.9999999772207293e-01  9.8753540158982156e-01  9.8105604665707413e-01  9.6971306248161615e-01  9.5804698832048529e-01  7.9708836868257704e-01  8.6618144789068685e-01  9.3849558695918234e-01  9.4686651513572795e-01  9.2939468626545496e-01  9.5027044744140354e-01  9.1103547999872103e-01  8.6030865355340236e-01  7.2103064866545097e-01  7.6476287403577736e-01  7.0462435066495055e-01  9.5643063904812697e-01  9.2696724825717258e-01  1.8573636066830213e-01  3.4060873333951175e-01  2.9807142734343844e-01  2.8218227137773799e-01  2.2389523465799679e-01  0.0000000000000000e+00  1.8703720753968395e-01  8.2670671700434784e-01  8.2073044094165293e-01  9.4880575040884407e-01  9.2370645074487978e-01  9.4743932766908012e-01  9.2378567844528026e-01  8.8898760057183102e-01  9.3496718677898938e-01  9.0120315858750377e-01  8.0553880196164174e-01  8.2951110383695037e-01  7.5767576113820889e-01  6.8982927383011028e-01  9.9999999772207304e-01  9.6934763843187022e-01  9.6962284672604182e-01  7.7718653312236929e-01  8.5274730106815089e-01  8.8044487029075247e-01  8.5488771338195813e-01  8.4615443626526021e-01  9.6875429637119459e-01  9.9999999772207293e-01  9.9999999772207282e-01  9.9999999772207304e-01  9.9999999772207293e-01  9.9999999772207304e-01  9.9999999772207293e-01  9.9999999772207282e-01  9.9999999772207293e-01  9.9999999772207293e-01  9.8640237128486807e-01  9.9999999772207293e-01  9.2662992391551136e-01  9.9999999772207293e-01  8.4848003054518806e-01  4.5017104495904925e-01  6.8694859406737374e-01  9.1189418938854572e-01  9.1714697750518648e-01  6.5541577410039586e-01  9.9999999772207293e-01  9.2175227293135642e-01  9.1288671421079370e-01  3.4592599680942859e-01  6.5533353341649070e-01  6.7320037590650483e-01  2.2304203780443574e-01  1.7177932562324008e-01  1.5401703205590458e-01  4.9222789249474075e-01  4.4928890196010185e-01  3.1877681138035147e-01  0.0000000000000000e+00  3.5866402324778729e-01  9.9999999772207293e-01  8.5350039803424216e-01  9.9999999772207282e-01  6.0738676593828200e-01  0.0000000000000000e+00  9.8294322753011032e-01  9.7749036220564245e-01  7.6328383717341275e-01  9.9999999772207293e-01  6.2970871714715204e-01  9.9999999772207304e-01  3.0872706748973372e-01  5.6580458822376389e-01  6.3084830689521987e-01  4.5698337772108100e-01  6.2306297765309471e-01  9.0137226436250706e-01  0.0000000000000000e+00  3.7305108969765594e-01  0.0000000000000000e+00  0.0000000000000000e+00  0.0000000000000000e+00  0.0000000000000000e+00  9.3250878478855892e-01  9.2492866608405455e-01  9.9999999772207304e-01  5.2901660829285668e-01  7.6695828694643531e-01  7.2702038668247460e-01  9.9999999772207293e-01  9.1780002476512712e-01  7.2258796166592043e-01  9.9999999772207282e-01  9.6932429671721998e-01  4.4036098111231592e-01  6.0985171449195097e-01  0.0000000000000000e+00  8.6732843272050542e-01  7.3602369168478987e-01  1.9159650286693150e-01  1.7470803169639113e-01  1.8884492674010445e-01  9.5507863410132332e-01  8.9448332049536672e-01  9.9999999772207282e-01  9.7994990789349479e-01  9.9999999772207282e-01  7.0347970366541779e-01  5.6735136990850854e-01  9.9999999772207304e-01  9.9999999772207304e-01  9.7188468792572591e-01  9.3062613884401146e-01  9.8084568775405645e-01  8.6275357279073994e-01  7.3914991962373544e-01  0.0000000000000000e+00  4.0866200120277973e-01  9.9999999772207293e-01  2.6533519908296149e-01  3.9045819733032372e-01  3.6637672833153323e-01  8.7265102727526500e-01  8.8386246046149153e-01  8.9771727588220107e-01  9.8177356102756219e-01  9.8935061941007929e-01  9.7989494801305188e-01  2.5449554308295225e-01  4.0346067525191043e-01  1.5307589412260905e-01  6.0244125880888388e-01  4.9594413387094594e-01  9.6531641958114123e-01  9.6247337558563495e-01  8.6026151860069766e-01  3.7071046604299934e-01  5.3907132861273122e-01  9.9999999772207293e-01  9.7522456333950125e-01  9.9999999772207293e-01  9.8590447102990497e-01  8.8059362818552911e-01  8.6116490098084564e-01  1.5515473066778626e-01  2.2546048001722985e-01  7.2435302292835602e-01  9.9999999772207304e-01  9.9999999772207304e-01  8.5692765868633711e-02  6.0652732537102537e-02  9.1259006412152521e-01  3.8699365104879152e-01  5.4329151020489252e-01  0.0000000000000000e+00  6.4404021363911201e-01  9.8417355181423116e-01  9.9999999772207304e-01  9.7205580935877178e-01  9.6787942272930738e-01  9.8078212023973388e-01  9.0890497688709893e-01  9.1316501476232803e-01  9.7673627996225598e-01  9.9999999772207304e-01  9.1842928341057628e-01  8.9861286967677823e-01  7.2765869740207501e-01  7.9313651796552598e-01  9.5512524940824095e-01  9.4331797272409912e-01  5.4298769978372408e-01  5.3022302645236741e-01  8.9330438800434686e-01  9.0939279399468109e-01  9.3368441897486310e-01  9.9999999772207304e-01  8.9351686730558588e-01  8.2717951170390258e-01  9.6313335165951142e-01  9.8067160059471281e-01  8.1663454455129758e-01  6.3992790535947541e-01  6.4628968234729400e-01  8.5948755928776510e-01  9.6232455561349506e-01  6.3187697914302488e-01  9.4423846777359866e-01  5.8741819696350239e-01  9.8020790009714442e-01  9.9999999772207293e-01  9.3297822219811544e-01  8.9008733625161773e-01  9.4558684989010378e-01  9.9692219071936594e-02  9.9999999772207293e-01  8.9173135624517152e-01  9.4146368640845979e-01  9.5424968887848027e-01  8.8121775839730965e-01  8.6586874088181665e-01  7.9122747154727013e-01  1.7091980431470588e-01  9.5369432201800719e-01  9.7574446566354811e-01  9.6369137062728760e-02  7.0048913914109445e-02  9.1474393057157632e-01  9.9999999772207304e-01  6.9978434087468944e-01  7.8112577375645520e-01  9.8412751703023438e-01  9.6263334930475863e-01  9.8065356604691678e-01  9.7029398690522006e-01  2.6738163608190646e-01  2.5491892832360330e-01  9.0307807376006399e-01  1.0562557567121045e-01  8.5302145255111883e-01  6.3851465424863452e-01  9.4261439692515248e-01  9.6338683903324029e-01  2.6789060453480973e-01  0.0000000000000000e+00  3.4814554841555068e-01  1.8317695743084281e-01  </DataArray> 
</PointData> 
</Piece>
</UnstructuredGrid>
</VTKFile>