<?xml version="1.0"?>
<VTKFile type="UnstructuredGrid"  version="0.1"  >
<UnstructuredGrid>
<Piece  NumberOfPoints="458" NumberOfCells="832">
<Points>
<DataArray  type="Float64"  NumberOfComponents="3"  format="ascii">1.89999999851 0.173205083338 0  1.100000014951 1.558845700916 0  1.899999976859 -0.173205070838 0  1.100000014951 -1.558845700916 0  0.79999999702 -1.732050782569 0  -0.79999999702 -1.732050776482 0  -1.100000014951 -1.558845700916 0  -1.899999976859 -0.173205070838 0  -1.79999999702 0 0  -1.900000020161 0.173205095838 0  -1.099999993301 1.558845688416 0  -0.79999999702 1.732050776482 0  0.79999999702 1.732050782569 0  0.319999992847 0 0  1.800000000564919 0.3464101605351311 0  1.700000002620031 0.5196152377323734 0  1.600000004675143 0.692820314929615 0  1.500000006730255 0.8660253921268568 0  1.400000008785367 1.039230469324099 0  1.300000010840478 1.212435546521341 0  1.200000012895589 1.385640623718584 0  1.826794919787441 0.1000000069028046 0  1.79999999702 1.250015836376237e-08 0  1.826794907287283 -0.099999985251895 0  1.20000001289601 -1.385640623718855 0  1.300000010840887 -1.212435546521633 0  1.400000008785764 -1.039230469324411 0  1.50000000673064 -0.8660253921271891 0  1.600000004675517 -0.6928203149299665 0  1.700000002620394 -0.5196152377327439 0  1.800000000565272 -0.3464101605355203 0  1.000000010135792 -1.532050773502 0  0.9000000026047366 -1.558845690780259 0  0.8267949163226551 -1.63205077558038 0  -0.5999999977650006 -1.732050807569 0  -0.3999999985100012 -1.732050807569 0  -0.1999999992550012 -1.732050807569 0  -1.110223024625157e-15 -1.732050807569001 0  0.199999999254999 -1.732050807569001 0  0.3999999985099993 -1.732050807569001 0  0.5999999977649997 -1.732050807569001 0  -0.8267949186052803 -1.632050771626757 0  -0.9000000052404853 -1.558845689258509 0  -1.000000011657542 -1.532050773502 0  -1.80000000056484 -0.3464101605352689 0  -1.700000002619963 -0.5196152377324909 0  -1.600000004675086 -0.6928203149297129 0  -1.50000000673021 -0.8660253921269347 0  -1.400000008785332 -1.039230469324158 0  -1.300000010840455 -1.21243554652138 0  -1.200000012895578 -1.385640623718604 0  -1.858578628397188 -0.141421345086162 0  -1.826794910412323 -0.09999999066462284 0  -1.8068148302461 -0.05176380375471544 0  -1.806814833481379 0.05176381582894065 0  -1.82679492291248 0.1000000123155314 0  -1.858578654914027 0.1414213716030013 0  -1.200000012896172 1.385640623718575 0  -1.300000010841052 1.212435546521347 0  -1.400000008785931 1.039230469324121 0  -1.500000006730811 0.8660253921268936 0  -1.600000004675691 0.6928203149296657 0  -1.700000002620571 0.5196152377324381 0  -1.800000000565452 0.3464101605352095 0  -0.9999999929079547 1.532050773502 0  -0.8999999944154055 1.558845695508372 0  -0.8267949154803489 1.632050777039297 0  0.5999999977650006 1.732050807569 0  0.3999999985100012 1.732050807569 0  0.1999999992550012 1.732050807569 0  1.110223024625157e-15 1.732050807569 0  -0.199999999254999 1.732050807569 0  -0.3999999985099993 1.732050807569 0  -0.5999999977649997 1.732050807569 0  0.8267949163226553 1.63205077558038 0  0.9000000026047372 1.558845690780259 0  1.000000010135792 1.532050773502 0  0.2262741649217603 0.2262741649217604 0  -1.225141956270872e-16 0.319999992847 0  -0.2262741649217606 0.2262741649217602 0  -0.319999992847 -3.871369352296243e-16 0  -0.2262741649217604 -0.2262741649217604 0  -3.43000132995988e-16 -0.319999992847 0  0.2262741649217602 -0.2262741649217606 0  -1.32403227008249 -0.1655481618264791 0  -0.6559545001721463 0.834831333527045 0  -0.6191324613560272 -0.8741963010775502 0  0.6518296435701447 -0.7791739169485039 0  0.5632210527941763 0.8021260071304711 0  1.130293756453899 -0.1279621763024616 0  -1.461712362090102 0.1190783395122679 0  9.899570052596118e-10 1.071362033067026 0  -3.183528995975848e-10 -1.071362032187092 0  -0.9173861017199769 0.2603195491201329 0  1.074949847941503 0.460358358492222 0  -0.8065588731879085 -0.3159356407839176 0  -1.569722542613223 -0.1093617800402951 0  -1.673769442513438 -0.2626283701225128 0  -0.5635866351940764 1.242851209417302 0  -0.5598007095572424 -1.251573502084433 0  0.5638384137458936 -1.234893993876831 0  0.5573095865749496 1.237225622765117 0  1.389206549287774 0.1108386526553084 0  1.036555967380581 -0.6425789452392957 0  1.481102457895208 -0.2057972302793381 0  -1.156711300658747 -0.4893931744805272 0  -0.9041757277480991 1.159522207920891 0  -0.9041757295712607 -1.159522202691768 0  0.9041757291274908 -1.15952220396478 0  0.8918105025079943 1.101608161990076 0  -1.059325271771506 0.6559214418832671 0  0.6410368259045096 -0.3487674155795288 0  0.6787218978266278 0.3574434174696062 0  -1.631838781633664 0.2884164889910588 0  1.634220711342343 0.2159440448888993 0  -0.4844594889400557 0.404353903131473 0  -0.466832278464886 -0.4305270217586601 0  0.1830450209317946 0.7132950468466426 0  0.185506562858873 -0.7157604202338106 0  -0.2117235312324399 0.7157007805003385 0  -0.6364741358352903 1.522169026678317 0  0.6364741422703739 -1.522169026310948 0  0.6364741265906544 1.522169047552075 0  -0.6364741298905381 -1.522169045769297 0  1.153245653969795 0.8125435811252458 0  -1.675290235500546 0.08173492774153664 0  -1.716846627169645 -0.09546304681612794 0  -0.2162552305693515 -1.404671790267723 0  0.2222638991767358 1.393455111054298 0  -0.2136026320640432 -0.7613804003943083 0  -1.350126001035187 0.4222907150240823 0  0.2266518796062817 -1.398690222581374 0  -0.2254469940828132 1.399899560806989 0  0.7727797158409135 -0.0346573635232891 0  -1.202472302245696 0.09231908130098411 0  1.389104166823814 0.4728013220705489 0  1.306408918641911 -0.5218831830269506 0  -1.118393238467754 -0.8595765265729055 0  -1.483332104487766 -0.3410763668055316 0  -1.000000021673877 -1.36020781303683 0  1.000000018844721 -1.360207814957552 0  1.000000018844257 1.360207814957642 0  -1.000000010053948 1.360207820925555 0  1.096763761276131 0.1659251913444485 0  0.3133386268227811 1.031331000374428 0  0.329680055380664 -1.007007473240028 0  1.691035586012954 -0.178380648964582 0  1.59692213245873 -0.006233856742581054 0  -0.3286579601255153 1.042940983465423 0  1.135377526486168 -0.9369518106758185 0  -0.6666609353928488 -0.0347164408773531 0  -1.02421962834045 -0.1284425332113929 0  -0.8388083608581667 -0.6035800904860518 0  -0.7906711369348565 -1.379316015040293 0  0.7949696095403955 1.363779517252508 0  -0.7906711479877582 1.379316033299444 0  0.790671153106679 -1.379316026272514 0  -0.7794313524841043 0.5335251661142921 0  0.3179916877369648 -0.3906878064959698 0  -1.132329475310357 0.9597530835481207 0  0.8706169569015501 0.6760387441929983 0  -0.3145384984381669 -1.075380959373884 0  -1.772834810415322 -0.2229415465613838 0  0.306988950262191 0.3966495573020577 0  -1.431999086511746 -0.5809716244878878 0  0.9242220838258843 -0.3771439842560163 0  -1.761048750668734 0.2252040258758886 0  -1.059929201982837 0.1763193152105585 0  -1.276299151640442 0.2573048981625332 0  -1.133756051377582 0.3413051320721076 0  1.259750152870836 -0.008561761823576611 0  1.435154503591491 -0.04747928881201485 0  1.305698107174553 -0.1668797032908999 0  0.7880258636980146 -0.5781589506022601 0  0.9803890256032326 -0.509861464747656 0  0.8441928054753629 -0.7108764310938998 0  -1.204725636403347 0.5391060784536746 0  -0.9883556867457415 0.4581204955017 0  1.085966746933375 -0.7897653779575571 0  0.8936035850281565 -0.8580628638121612 0  1.767110354926075 0.1945745641133941 0  1.667110356981187 0.3677796413106363 0  1.695517794316674 -0.3489979433486629 0  1.7955177814361 -0.1757928599010775 0  0.6464332347373272 -0.5639706662640164 0  0.7826294548651971 -0.3629556999177725 0  -0.8576398859718259 0.745376387705156 0  -1.095827373540931 0.8078372627156939 0  -0.8941419877412518 0.8972922085375828 0  1.39375568826856 -0.3638402066531443 0  1.218351337547905 -0.3249226796647061 0  -0.8687628499118905 -0.8668864138252279 0  -0.97860079966296 -0.7315783085294787 0  -0.7289704111070971 -0.738888195781801 0  -1.018252601529228 1.059637645734506 0  -0.7800651139601227 0.997176770723968 0  0.7780026863488176 -0.969348060456642 0  1.019776627806829 -1.048237007320299 0  -0.7616540954636442 -1.016859251884659 0  -1.011284484019507 -1.009549364632337 0  -1.05000001250262 1.459526760920679 0  -1.1500000104475 1.286321683723451 0  -1.150000016257167 -1.286321679779105 0  -1.050000018312423 -1.459526756976441 0  1.150000014842367 1.286321680739491 0  1.050000016897479 1.459526757936735 0  1.050000016897927 -1.459526757936815 0  1.150000014842804 -1.286321680739593 0  1.115315501233898 -0.4495135836414834 0  1.027257920139891 -0.252553080279239 0  -0.5182370671726448 1.627109917123658 0  -0.718237066427645 1.627109901580158 0  0.5182370703901866 -1.627109916939975 0  0.718237069645187 -1.627109904439974 0  -0.7182370634552688 -1.627109926669149 0  -0.5182370642002696 -1.627109926669149 0  0.7182370618053273 1.627109927560538 0  0.5182370625503276 1.627109927560538 0  -0.3880279700632969 -1.328122646176078 0  -0.4263646802299448 -1.46342041801851 0  -0.5981374197238902 -1.386871273926865 0  0.3897867428758426 1.315340366909707 0  0.4293690128836951 1.457812079303186 0  0.5968918565828019 1.379697335158596 0  1.085856804608817 0.3131417749183352 0  0.8877428295513794 0.2616843044070273 0  0.8768358728840651 0.4089008879809141 0  -0.3081276145396763 -1.568361298918362 0  0.3111319488433684 1.562752959311649 0  -1.17412594921147 -0.146995347518936 0  -1.090465464499599 -0.30891785384596 0  -1.240371785370618 -0.3274706681535031 0  -1.320021702573257 -0.4152347706430294 0  -1.403682187285128 -0.2533122643160053 0  -1.751042579206513 0.09086747002853399 0  -1.737645116260273 0.04086746387076829 0  0.9347717385585221 0.06563391391057971 0  0.7257508068337706 0.1613930269731585 0  0.4849106656535547 -0.5849308617222369 0  0.4795142568207371 -0.3697276110377493 0  0.09275328142943629 -0.5178802065404053 0  -0.01404803460258508 -0.7385704103140595 0  -0.1068013160320218 -0.5406901
[...]
<PointData  Scalars="f_17"> 
<DataArray  type="Float64"  Name="f_17"  format="ascii">7.5291229367717583e-01  5.3421299597913185e-01  8.0786299408789786e-01  8.5435572150069672e-01  9.2663038548932075e-01  9.4613837359957786e-01  7.8328852317098818e-01  8.4149224975250636e-01  3.8069137999263131e-01  9.4853164862500464e-02  8.9266559136750279e-01  9.8859134346413480e-01  7.4538724804637169e-01  8.0605803851236013e-01  7.0827061641667965e-01  6.0998441709465256e-01  4.7973647330392677e-01  3.4720102504151246e-01  2.7801849100352988e-01  3.3628832442271572e-01  4.5711685662377477e-01  7.7095156368022089e-01  8.0067130882496673e-01  8.0947392234714322e-01  8.3537560089231178e-01  8.0930297727735401e-01  7.8841399462183748e-01  7.7763359706132851e-01  7.7905433410295932e-01  7.9077353917190885e-01  8.0397195545788980e-01  8.6604566286693330e-01  8.9438944713101032e-01  9.1894510638671900e-01  9.3030485090751813e-01  9.0910264570663057e-01  9.0555078796740518e-01  9.1635420690585756e-01  9.3521919441682322e-01  9.5030348387104957e-01  9.4279530591321392e-01  9.4429337259498147e-01  8.9045015472984212e-01  8.1255779409866025e-01  4.5653926072498224e-01  1.7884370538304958e-01  2.6522629037086892e-01  4.2498068754731927e-01  5.4767760980568292e-01  6.4266701931011283e-01  7.2691760207864453e-01  8.7019100631450852e-01  8.8648354961730091e-01  6.6866328395505548e-01  1.7638708157349034e-01  9.9144562465807745e-02  9.1484946279786580e-02  8.7228866293079221e-01  8.5520225181891707e-01  8.6585302570860501e-01  8.7637573845638028e-01  6.9701437996212756e-01  3.5553353693187628e-01  1.4755184924477116e-01  9.0568138932783249e-01  9.4080113420053990e-01  9.7686576916938839e-01  7.9531743891220275e-01  8.6155261340870981e-01  9.1598804245420540e-01  9.6068068039312970e-01  9.9057266191343851e-01  9.9735508058461053e-01  9.9702163580663683e-01  7.2209129104368008e-01  6.5255307799540829e-01  5.6976336848148113e-01  8.6489104529276128e-01  9.6491430173635295e-01  9.9999954364736321e-01  9.9999954364736321e-01  9.8576389751381654e-01  9.1868761221348305e-01  8.6354588712615499e-01  2.0296223877168593e-01  7.8490060940525241e-01  5.6056143144414106e-01  8.6843530413010361e-01  7.9696342781717788e-01  7.9499498691454029e-01  6.8071930375644588e-02  9.8155082717841491e-01  9.5472898494113922e-01  3.0794525030273823e-01  5.6073716680536290e-01  5.1216431561774733e-01  2.9821453079370508e-01  4.1319253676995465e-01  9.5668025561672598e-01  8.6308248654202646e-01  9.5819527433945550e-01  9.9999954364736332e-01  9.9999954364736310e-01  7.9351935306430310e-01  8.4356742719208466e-01  4.9608198299614970e-01  8.6549037293567532e-01  7.2959332646827690e-01  8.5695871887139996e-01  4.9561810015493202e-01  6.7197957931992569e-01  8.1138640213253832e-01  7.1860369243313393e-01  1.0628764500368035e-01  7.5587656686404037e-01  6.3247727222284866e-01  9.9999954364736310e-01  9.9999954364736332e-01  9.9999954364736321e-01  9.9999954364736310e-01  9.9999954364736332e-01  9.4919291854754007e-01  7.8551670833051379e-01  9.4230044694901349e-01  0.0000000000000000e+00  0.0000000000000000e+00  5.9404476821026009e-01  9.1090987404495061e-01  9.4189925841390088e-01  7.7927368992517621e-01  3.5648575686136669e-01  9.5662734806128169e-01  9.9047877587125099e-01  7.5698004141743991e-01  1.4650953501299857e-01  5.7081909698634758e-01  7.8557891295937798e-01  5.9750416831403652e-01  1.7394394787256226e-01  7.7437581972385106e-01  8.5666821575455743e-01  5.3130388149417551e-01  8.9041062404236582e-01  7.2595707631341988e-01  9.9999954364736310e-01  9.9999954364736321e-01  8.1825257416418828e-01  8.4783638951326878e-01  9.3864502904621949e-01  8.0047766466589654e-01  0.0000000000000000e+00  0.0000000000000000e+00  7.5857803652130584e-01  8.7491743039933334e-01  6.8230163287131329e-01  9.4368559846602318e-01  9.0705101227313334e-01  5.6850801842776288e-01  8.8544959265289946e-01  8.3222082821829313e-01  5.1991943050019429e-01  9.4442321213532543e-01  6.6149919693800530e-01  8.8125401556596517e-01  2.5331992142197773e-01  7.8693136541733300e-01  9.7393016740872113e-02  2.3062000905401683e-01  1.7324612981564869e-01  3.4263139157807654e-01  8.4632138679251212e-01  9.9999954364736310e-01  8.3917037589403010e-01  8.1709553635889653e-01  7.9144992939510606e-01  8.2164352078736258e-01  5.8240324252222542e-01  4.8023189499261792e-01  7.9641094636267029e-01  8.2767671316928282e-01  7.5238500828801347e-01  6.7967218744315661e-01  8.0341806096080126e-01  8.0974099790245258e-01  8.4085772444272711e-01  7.9522308138101139e-01  7.0649977676355835e-01  7.8069057649482576e-01  7.8116301045647574e-01  8.0451335335465823e-01  7.9761498499954264e-01  6.4823561365032278e-01  6.7541066306995157e-01  5.6484969829195886e-01  8.3493709034929797e-01  8.2839491838837886e-01  8.6362159427299889e-01  8.2456821768194444e-01  6.9805986076866977e-01  6.5549744563487355e-01  8.9323588057042735e-01  8.6509289339281448e-01  7.0463430162433649e-01  7.8339424385148204e-01  4.2321794189604839e-01  5.3528359093933398e-01  8.5558865490546721e-01  8.2926343495396404e-01  7.8666610275903814e-01  7.8244378936820858e-01  9.9803044349058168e-01  9.9999954364736332e-01  9.5366073306690446e-01  9.3061087592407976e-01  9.4979464171700712e-01  9.1940060450274430e-01  7.5302528285710124e-01  8.2646803151192849e-01  8.9978373882111518e-01  9.0461044512026811e-01  9.0071466572165559e-01  9.3419102679495558e-01  8.8261865372608173e-01  8.3319097624764027e-01  6.5259484104218612e-01  6.8541732199848771e-01  6.3620261209083917e-01  9.0525233622946599e-01  8.9680199367261448e-01  1.8090399831673007e-01  3.3562473732130671e-01  2.9110831549724653e-01  2.7381262341508372e-01  2.1920643903459586e-01  0.0000000000000000e+00  1.8665531038909680e-01  7.3686652680857589e-01  7.3365105482153747e-01  8.8385709617879782e-01  8.4499666488263547e-01  9.2964236701027347e-01  9.1420465698887332e-01  8.7849181148883182e-01  9.1160583159847652e-01  8.7491947383226087e-01  7.8272065767544252e-01  7.9816374678871882e-01  7.3732668507599186e-01  6.6797024877006939e-01  9.9999954364736321e-01  9.0432410114542561e-01  9.1368740491797484e-01  7.2949238174629583e-01  7.9412827230975003e-01  8.4854591890431741e-01  7.7624341333424840e-01  7.9174623336044359e-01  9.2506311936687746e-01  9.9999954364736310e-01  9.9999954364736310e-01  9.9999954364736321e-01  9.9999954364736310e-01  9.9999954364736310e-01  9.9999954364736310e-01  9.9999954364736321e-01  9.9999954364736321e-01  9.9999954364736321e-01  9.5441841046944076e-01  9.9999954364736332e-01  9.1131299894912543e-01  9.9999954364736310e-01  7.8417211306286139e-01  4.2633821127412147e-01  6.5029905701304680e-01  7.8503508593995908e-01  7.8418190158547263e-01  6.5210199566634253e-01  9.9999954364736321e-01  7.8442845048892729e-01  7.7858792769642748e-01  3.4391345711303195e-01  6.5418681290287595e-01  6.7115933189419952e-01  2.1939642073674404e-01  1.6982530698047824e-01  1.5085932356149231e-01  4.4133734138372799e-01  4.0369745410804786e-01  2.8451458678568731e-01  0.0000000000000000e+00  3.2875472685696111e-01  9.9999954364736321e-01  8.4135869868028856e-01  9.9999954364736310e-01  6.0405734956607149e-01  0.0000000000000000e+00  9.7309090058857173e-01  9.2028101336426971e-01  7.2119434748670930e-01  9.9999954364736321e-01  6.2570108240300104e-01  9.9999954364736332e-01  3.0793601237639157e-01  5.6527218880504948e-01  6.0155139947209091e-01  4.3504990617348499e-01  6.1880967373372397e-01  8.7689943721770269e-01  0.0000000000000000e+00  3.5927304977324492e-01  0.0000000000000000e+00  0.0000000000000000e+00  0.0000000000000000e+00  0.0000000000000000e+00  9.0275513562014953e-01  8.6522488547742848e-01  9.9999954364736321e-01  5.2806013332998669e-01  7.1485190570097912e-01  6.6801361975317963e-01  9.9999954364736332e-01  8.9101649049384835e-01  6.9079648237248714e-01  9.9999954364736310e-01  9.5532382669908134e-01  3.9759342134418635e-01  5.5279836504474389e-01  0.0000000000000000e+00  8.4627044339776347e-01  7.1081895567969111e-01  1.8334364578636556e-01  1.7117974228558208e-01  1.8041633206055541e-01  9.4159381532808129e-01  8.7074072712167150e-01  9.9999954364736332e-01  9.7375033140442291e-01  9.9999954364736310e-01  6.4497056043236090e-01  5.1475935360125358e-01  9.9999954364736332e-01  9.9999954364736310e-01  9.2678801885848516e-01  9.1987973131679135e-01  9.7623494633330321e-01  8.1961223380946957e-01  6.8242997462342203e-01  0.0000000000000000e+00  3.9196745355323875e-01  9.9999954364736332e-01  2.4006711296017347e-01  3.6140976348777804e-01  3.6284030255725186e-01  7.8118636917372397e-01  7.8227302138384081e-01  8.0915935925869920e-01  9.6412508306453937e-01  9.7287490343025484e-01  9.5114042820002720e-01  2.5314283517700054e-01  4.0179568348966993e-01  1.4731019308785609e-01  5.8133440099134970e-01  4.7034226295161269e-01  9.1130540120798231e-01  9.4200799425025561e-01  7.8228970881059223e-01  3.4767652852123365e-01  5.0474332711436865e-01  9.9999954364736310e-01  9.6626826648853947e-01  9.9999954364736310e-01  9.7820182229091335e-01  7.7498182721050357e-01  7.6328399336015618e-01  1.5051544220838303e-01  2.2318917000237065e-01  7.2346186828834846e-01  9.9999954364736310e-01  9.9999954364736332e-01  8.4939033379296369e-02  6.0064565759164447e-02  8.3717231719346785e-01  3.8477253361429425e-01  5.4174363763710875e-01  0.0000000000000000e+00  5.8470997780832357e-01  9.7523471814361873e-01  9.9999954364736332e-01  9.2831653447669238e-01  9.3247880645042269e-01  9.6901950067435394e-01  8.0406996224493810e-01  8.3284070858025228e-01  9.3074782264868727e-01  9.9999954364736321e-01  8.8154247861586998e-01  8.5584802646401548e-01  6.8342641987433173e-01  7.5442385664953637e-01  8.5694190845001739e-01  8.2532256681787686e-01  5.1144069904443790e-01  5.2849781806461371e-01  8.3007197038820990e-01  7.8717127435440715e-01  9.0472157522939067e-01  9.9999954364736321e-01  8.6583656808857257e-01  7.9354161630140962e-01  8.8158192319652395e-01  9.3727543216058196e-01  7.9239846164799899e-01  6.1055251841675573e-01  6.0372133392600946e-01  8.2731078328619534e-01  8.7353125631690054e-01  5.9093727254102901e-01  9.1285040760304836e-01  5.6567385486202870e-01  9.6119346968991881e-01  9.9999954364736332e-01  8.0273085552051848e-01  8.5029450891221503e-01  9.3304496903030754e-01  9.8717812645003455e-02  9.9999954364736321e-01  8.1341760807824470e-01  9.0295748211794391e-01  9.3024356248187468e-01  8.1337156544339373e-01  8.1103864340488008e-01  7.9043923208151534e-01  1.6228487556520568e-01  9.1861028975100556e-01  9.5585154086572244e-01  9.5420510579405579e-02  6.9316766461072404e-02  8.9399954462262066e-01  9.9999954364736321e-01  6.5956780267949811e-01  7.4466884690670287e-01  9.7557634240853941e-01  9.4176358058187648e-01  9.3293911055922052e-01  8.9844528699897541e-01  2.6422076751586943e-01  2.5237399220880213e-01  8.3221771856313631e-01  1.0447293752081217e-01  8.2129171042175220e-01  6.0148207843977886e-01  9.1314166501762117e-01  8.7890397018842226e-01  2.6516625150803452e-01  0.0000000000000000e+00  3.4561896847045720e-01  1.8123204126439948e-01  </DataArray> 
</PointData> 
</Piece>
</UnstructuredGrid>
</VTKFile>