<?xml version="1.0"?>
<VTKFile type="UnstructuredGrid"  version="0.1"  >
<UnstructuredGrid>
<Piece  NumberOfPoints="458" NumberOfCells="832">
<Points>
<DataArray  type="Float64"  NumberOfComponents="3"  format="ascii">1.89999999851 0.173205083338 0  1.100000014951 1.558845700916 0  1.899999976859 -0.173205070838 0  1.100000014951 -1.558845700916 0  0.79999999702 -1.732050782569 0  -0.79999999702 -1.732050776482 0  -1.100000014951 -1.558845700916 0  -1.899999976859 -0.173205070838 0  -1.79999999702 0 0  -1.900000020161 0.173205095838 0  -1.099999993301 1.558845688416 0  -0.79999999702 1.732050776482 0  0.79999999702 1.732050782569 0  0.319999992847 0 0  1.800000000564919 0.3464101605351311 0  1.700000002620031 0.5196152377323734 0  1.600000004675143 0.692820314929615 0  1.500000006730255 0.8660253921268568 0  1.400000008785367 1.039230469324099 0  1.300000010840478 1.212435546521341 0  1.200000012895589 1.385640623718584 0  1.826794919787441 0.1000000069028046 0  1.79999999702 1.250015836376237e-08 0  1.826794907287283 -0.099999985251895 0  1.20000001289601 -1.385640623718855 0  1.300000010840887 -1.212435546521633 0  1.400000008785764 -1.039230469324411 0  1.50000000673064 -0.8660253921271891 0  1.600000004675517 -0.6928203149299665 0  1.700000002620394 -0.5196152377327439 0  1.800000000565272 -0.3464101605355203 0  1.000000010135792 -1.532050773502 0  0.9000000026047366 -1.558845690780259 0  0.8267949163226551 -1.63205077558038 0  -0.5999999977650006 -1.732050807569 0  -0.3999999985100012 -1.732050807569 0  -0.1999999992550012 -1.732050807569 0  -1.110223024625157e-15 -1.732050807569001 0  0.199999999254999 -1.732050807569001 0  0.3999999985099993 -1.732050807569001 0  0.5999999977649997 -1.732050807569001 0  -0.8267949186052803 -1.632050771626757 0  -0.9000000052404853 -1.558845689258509 0  -1.000000011657542 -1.532050773502 0  -1.80000000056484 -0.3464101605352689 0  -1.700000002619963 -0.5196152377324909 0  -1.600000004675086 -0.6928203149297129 0  -1.50000000673021 -0.8660253921269347 0  -1.400000008785332 -1.039230469324158 0  -1.300000010840455 -1.21243554652138 0  -1.200000012895578 -1.385640623718604 0  -1.858578628397188 -0.141421345086162 0  -1.826794910412323 -0.09999999066462284 0  -1.8068148302461 -0.05176380375471544 0  -1.806814833481379 0.05176381582894065 0  -1.82679492291248 0.1000000123155314 0  -1.858578654914027 0.1414213716030013 0  -1.200000012896172 1.385640623718575 0  -1.300000010841052 1.212435546521347 0  -1.400000008785931 1.039230469324121 0  -1.500000006730811 0.8660253921268936 0  -1.600000004675691 0.6928203149296657 0  -1.700000002620571 0.5196152377324381 0  -1.800000000565452 0.3464101605352095 0  -0.9999999929079547 1.532050773502 0  -0.8999999944154055 1.558845695508372 0  -0.8267949154803489 1.632050777039297 0  0.5999999977650006 1.732050807569 0  0.3999999985100012 1.732050807569 0  0.1999999992550012 1.732050807569 0  1.110223024625157e-15 1.732050807569 0  -0.199999999254999 1.732050807569 0  -0.3999999985099993 1.732050807569 0  -0.5999999977649997 1.732050807569 0  0.8267949163226553 1.63205077558038 0  0.9000000026047372 1.558845690780259 0  1.000000010135792 1.532050773502 0  0.2262741649217603 0.2262741649217604 0  -1.225141956270872e-16 0.319999992847 0  -0.2262741649217606 0.2262741649217602 0  -0.319999992847 -3.871369352296243e-16 0  -0.2262741649217604 -0.2262741649217604 0  -3.43000132995988e-16 -0.319999992847 0  0.2262741649217602 -0.2262741649217606 0  -1.32403227008249 -0.1655481618264791 0  -0.6559545001721463 0.834831333527045 0  -0.6191324613560272 -0.8741963010775502 0  0.6518296435701447 -0.7791739169485039 0  0.5632210527941763 0.8021260071304711 0  1.130293756453899 -0.1279621763024616 0  -1.461712362090102 0.1190783395122679 0  9.899570052596118e-10 1.071362033067026 0  -3.183528995975848e-10 -1.071362032187092 0  -0.9173861017199769 0.2603195491201329 0  1.074949847941503 0.460358358492222 0  -0.8065588731879085 -0.3159356407839176 0  -1.569722542613223 -0.1093617800402951 0  -1.673769442513438 -0.2626283701225128 0  -0.5635866351940764 1.242851209417302 0  -0.5598007095572424 -1.251573502084433 0  0.5638384137458936 -1.234893993876831 0  0.5573095865749496 1.237225622765117 0  1.389206549287774 0.1108386526553084 0  1.036555967380581 -0.6425789452392957 0  1.481102457895208 -0.2057972302793381 0  -1.156711300658747 -0.4893931744805272 0  -0.9041757277480991 1.159522207920891 0  -0.9041757295712607 -1.159522202691768 0  0.9041757291274908 -1.15952220396478 0  0.8918105025079943 1.101608161990076 0  -1.059325271771506 0.6559214418832671 0  0.6410368259045096 -0.3487674155795288 0  0.6787218978266278 0.3574434174696062 0  -1.631838781633664 0.2884164889910588 0  1.634220711342343 0.2159440448888993 0  -0.4844594889400557 0.404353903131473 0  -0.466832278464886 -0.4305270217586601 0  0.1830450209317946 0.7132950468466426 0  0.185506562858873 -0.7157604202338106 0  -0.2117235312324399 0.7157007805003385 0  -0.6364741358352903 1.522169026678317 0  0.6364741422703739 -1.522169026310948 0  0.6364741265906544 1.522169047552075 0  -0.6364741298905381 -1.522169045769297 0  1.153245653969795 0.8125435811252458 0  -1.675290235500546 0.08173492774153664 0  -1.716846627169645 -0.09546304681612794 0  -0.2162552305693515 -1.404671790267723 0  0.2222638991767358 1.393455111054298 0  -0.2136026320640432 -0.7613804003943083 0  -1.350126001035187 0.4222907150240823 0  0.2266518796062817 -1.398690222581374 0  -0.2254469940828132 1.399899560806989 0  0.7727797158409135 -0.0346573635232891 0  -1.202472302245696 0.09231908130098411 0  1.389104166823814 0.4728013220705489 0  1.306408918641911 -0.5218831830269506 0  -1.118393238467754 -0.8595765265729055 0  -1.483332104487766 -0.3410763668055316 0  -1.000000021673877 -1.36020781303683 0  1.000000018844721 -1.360207814957552 0  1.000000018844257 1.360207814957642 0  -1.000000010053948 1.360207820925555 0  1.096763761276131 0.1659251913444485 0  0.3133386268227811 1.031331000374428 0  0.329680055380664 -1.007007473240028 0  1.691035586012954 -0.178380648964582 0  1.59692213245873 -0.006233856742581054 0  -0.3286579601255153 1.042940983465423 0  1.135377526486168 -0.9369518106758185 0  -0.6666609353928488 -0.0347164408773531 0  -1.02421962834045 -0.1284425332113929 0  -0.8388083608581667 -0.6035800904860518 0  -0.7906711369348565 -1.379316015040293 0  0.7949696095403955 1.363779517252508 0  -0.7906711479877582 1.379316033299444 0  0.790671153106679 -1.379316026272514 0  -0.7794313524841043 0.5335251661142921 0  0.3179916877369648 -0.3906878064959698 0  -1.132329475310357 0.9597530835481207 0  0.8706169569015501 0.6760387441929983 0  -0.3145384984381669 -1.075380959373884 0  -1.772834810415322 -0.2229415465613838 0  0.306988950262191 0.3966495573020577 0  -1.431999086511746 -0.5809716244878878 0  0.9242220838258843 -0.3771439842560163 0  -1.761048750668734 0.2252040258758886 0  -1.059929201982837 0.1763193152105585 0  -1.276299151640442 0.2573048981625332 0  -1.133756051377582 0.3413051320721076 0  1.259750152870836 -0.008561761823576611 0  1.435154503591491 -0.04747928881201485 0  1.305698107174553 -0.1668797032908999 0  0.7880258636980146 -0.5781589506022601 0  0.9803890256032326 -0.509861464747656 0  0.8441928054753629 -0.7108764310938998 0  -1.204725636403347 0.5391060784536746 0  -0.9883556867457415 0.4581204955017 0  1.085966746933375 -0.7897653779575571 0  0.8936035850281565 -0.8580628638121612 0  1.767110354926075 0.1945745641133941 0  1.667110356981187 0.3677796413106363 0  1.695517794316674 -0.3489979433486629 0  1.7955177814361 -0.1757928599010775 0  0.6464332347373272 -0.5639706662640164 0  0.7826294548651971 -0.3629556999177725 0  -0.8576398859718259 0.745376387705156 0  -1.095827373540931 0.8078372627156939 0  -0.8941419877412518 0.8972922085375828 0  1.39375568826856 -0.3638402066531443 0  1.218351337547905 -0.3249226796647061 0  -0.8687628499118905 -0.8668864138252279 0  -0.97860079966296 -0.7315783085294787 0  -0.7289704111070971 -0.738888195781801 0  -1.018252601529228 1.059637645734506 0  -0.7800651139601227 0.997176770723968 0  0.7780026863488176 -0.969348060456642 0  1.019776627806829 -1.048237007320299 0  -0.7616540954636442 -1.016859251884659 0  -1.011284484019507 -1.009549364632337 0  -1.05000001250262 1.459526760920679 0  -1.1500000104475 1.286321683723451 0  -1.150000016257167 -1.286321679779105 0  -1.050000018312423 -1.459526756976441 0  1.150000014842367 1.286321680739491 0  1.050000016897479 1.459526757936735 0  1.050000016897927 -1.459526757936815 0  1.150000014842804 -1.286321680739593 0  1.115315501233898 -0.4495135836414834 0  1.027257920139891 -0.252553080279239 0  -0.5182370671726448 1.627109917123658 0  -0.718237066427645 1.627109901580158 0  0.5182370703901866 -1.627109916939975 0  0.718237069645187 -1.627109904439974 0  -0.7182370634552688 -1.627109926669149 0  -0.5182370642002696 -1.627109926669149 0  0.7182370618053273 1.627109927560538 0  0.5182370625503276 1.627109927560538 0  -0.3880279700632969 -1.328122646176078 0  -0.4263646802299448 -1.46342041801851 0  -0.5981374197238902 -1.386871273926865 0  0.3897867428758426 1.315340366909707 0  0.4293690128836951 1.457812079303186 0  0.5968918565828019 1.379697335158596 0  1.085856804608817 0.3131417749183352 0  0.8877428295513794 0.2616843044070273 0  0.8768358728840651 0.4089008879809141 0  -0.3081276145396763 -1.568361298918362 0  0.3111319488433684 1.562752959311649 0  -1.17412594921147 -0.146995347518936 0  -1.090465464499599 -0.30891785384596 0  -1.240371785370618 -0.3274706681535031 0  -1.320021702573257 -0.4152347706430294 0  -1.403682187285128 -0.2533122643160053 0  -1.751042579206513 0.09086747002853399 0  -1.737645116260273 0.04086746387076829 0  0.9347717385585221 0.06563391391057971 0  0.7257508068337706 0.1613930269731585 0  0.4849106656535547 -0.5849308617222369 0  0.4795142568207371 -0.3697276110377493 0  0.09275328142943629 -0.5178802065404053 0  -0.01404803460258508 -0.7385704103140595 0  -0.1068013160320218 -0.5406901
[...]
<PointData  Scalars="f_17"> 
<DataArray  type="Float64"  Name="f_17"  format="ascii">4.9080610084643386e-02  3.4847817681153956e-02  5.0273241002897956e-02  5.1562715013284743e-02  6.7778603539740370e-02  1.3585136166086531e-01  5.9126630720458206e-02  3.5192213311518156e-01  1.4857045989023945e-01  9.0515745418811213e-03  6.4655796898981641e-02  2.4399219606676983e-01  5.0506609822073688e-02  5.0663400835782926e-02  4.5890113376904455e-02  3.8366890997481501e-02  2.9088609684011873e-02  2.0597267751947760e-02  1.6718625360089192e-02  2.1095612194123887e-02  2.9468280958257393e-02  5.1607125208181295e-02  5.4799746043123695e-02  5.2301402016999052e-02  4.8394589672963881e-02  4.4450899512623619e-02  4.1640940686844694e-02  4.0637040569898836e-02  4.1730682342305425e-02  4.4752189189262319e-02  4.8404616534840954e-02  5.4134949507646808e-02  6.1686384380745314e-02  6.7645794288969913e-02  8.7628173270340032e-02  6.4536137843709526e-02  6.1125571469424711e-02  6.2596572823735000e-02  6.9343854682001965e-02  8.6861986455791851e-02  7.8618084356765608e-02  2.0207206269724495e-01  1.6915055183844421e-01  7.7145008830543163e-02  7.8079026332140047e-02  1.5413729517635564e-02  1.7956530301497062e-02  2.8064748001602365e-02  3.5838799745890278e-02  4.2407375919104741e-02  4.9932620857116146e-02  4.1608816581655594e-01  4.9934412938643208e-01  3.3766302866857217e-01  5.1851711343258514e-02  1.8015494277298393e-02  9.9586678849455448e-03  6.0837915247413631e-02  6.0055289604966450e-02  7.2827840430117433e-02  1.3651982063473500e-01  1.0572364747286041e-01  3.8540204902197721e-02  1.1926263974018976e-02  7.2690524355866468e-02  1.2292278575107182e-01  2.4452575850135574e-01  5.4806731384837791e-02  6.1131775513233282e-02  7.1811786938948907e-02  1.1396391364798179e-01  2.2145454128458691e-01  1.5828241025107861e-01  2.0063839494360813e-01  4.9114824044945889e-02  4.4210654142374052e-02  3.7697029084114146e-02  6.9675277866135171e-02  1.4940980226831535e-01  6.6712891630192050e-01  6.6712891630192050e-01  2.8497635318669257e-01  9.0455336557845156e-02  6.2518626392431581e-02  1.5433326523421099e-02  5.6632473743338303e-02  6.7617488802496947e-02  5.9695270206238271e-02  8.1390872990633759e-02  5.5240824887732708e-02  5.7770574205355269e-03  1.6792895399745644e-01  1.0139926745156071e-01  2.1373954963848970e-02  3.4729748769138973e-02  9.5525905009866963e-02  4.3213443031467888e-02  7.6636523449949964e-02  2.2366050032390239e-01  7.6560318486781895e-02  1.8009974603658124e-01  6.6712891630192050e-01  6.6712891630192050e-01  4.3756116151359450e-02  8.7392650846693842e-02  6.9954870330228069e-02  6.7693842620112674e-02  5.2713121302519185e-02  5.3919950350976860e-02  4.1066979108972231e-02  6.4246711461951642e-02  4.9240087000110566e-02  4.5427634730832465e-02  8.6582754904935919e-03  6.0388738185077374e-02  6.4611585675506095e-02  6.6712891630192050e-01  6.6712891630192050e-01  6.6712891630192050e-01  6.6712891630192050e-01  6.6712891630192050e-01  1.5342747780322852e-01  5.8705532255610655e-02  2.0628975786367823e-01  0.0000000000000000e+00  0.0000000000000000e+00  2.4965179375385638e-01  6.4036581218918753e-02  9.8182324286260392e-02  1.4664475675942024e-01  4.2215949598406945e-02  1.2077793803947597e-01  2.2311178794639386e-01  4.4310617297810190e-02  1.0377423001627166e-02  3.7295396333629403e-02  4.3413678496937919e-02  4.4075168141240510e-02  1.4488378155052876e-02  6.1710288678801982e-02  5.2675915277658934e-02  3.5618213578337478e-02  6.7600221237042360e-02  5.0177744266116757e-02  6.6712891630192050e-01  6.6712891630192050e-01  5.6472012113328578e-02  1.1386240848066188e-01  1.0470815160977602e-01  4.3642973079124452e-02  0.0000000000000000e+00  0.0000000000000000e+00  1.9255424423364681e-01  1.7441258433923840e-01  5.5463516931358335e-02  1.6538510832371756e-01  8.6426675854865312e-02  3.9751763586081505e-02  8.5217116094599685e-02  7.1632555338352527e-02  3.4205811147023604e-02  1.9497739368680830e-01  2.3058907405014234e-01  1.1063581370559397e-01  1.7876111779897480e-02  4.4734530906172194e-02  8.2468316919460261e-03  1.6087557304606152e-02  1.3408644368809947e-02  2.6267903501269219e-02  1.3454002198849188e-01  6.6712891630192050e-01  8.7304452021649007e-02  4.8233894894625741e-02  4.4297245580430460e-02  4.8152077819569906e-02  7.3648946407286253e-02  3.5472178495080768e-02  4.3514522203769467e-02  4.8639515256452992e-02  5.0517114692537488e-02  4.4867935346575329e-02  4.8460728719663129e-02  5.1255530933883825e-02  5.3392974955293590e-02  4.6202601635912256e-02  5.0228939330474752e-02  7.2770731393534391e-02  5.5482311467839440e-02  5.0767644874976953e-02  4.8446963488205291e-02  5.0380360911529698e-02  8.1439576087085422e-02  5.3297064068760905e-02  5.9267643052611632e-02  6.1173166112812725e-02  5.6466727715711602e-02  4.7386972881480097e-02  5.4706963869961607e-02  4.5267073710066837e-02  6.5889951868861651e-02  6.0376763947446961e-02  4.7959102323487254e-02  6.1435925774107232e-02  2.7343017118103979e-02  3.5122791426673142e-02  5.1957046856311785e-02  4.7530180059472932e-02  4.4061079985934393e-02  4.5783051526963388e-02  2.0393472054977532e-01  6.6712891630192050e-01  1.1153674935298127e-01  7.6359649513079997e-02  1.8605600116612730e-01  7.8437507246707450e-02  5.1714024915352458e-02  5.8642614534562786e-02  6.8636549288100285e-02  7.0111339523936694e-02  1.2164627157045803e-01  1.4177365979300557e-01  7.8825021312298141e-02  1.0491853504854154e-01  4.1914386030608451e-02  4.1573049578408232e-02  3.9165816383628871e-02  6.2767898246087403e-02  6.7762409175603985e-02  1.3997355347122202e-02  4.1473539846153575e-02  2.5147347994769882e-02  2.1940303592399013e-02  1.7280731244066611e-02  0.0000000000000000e+00  5.7172693391429254e-02  4.4495394261195906e-02  4.4026904510220552e-02  7.3185695996874051e-02  6.0017453347062023e-02  1.3962130411969700e-01  1.1512930572566361e-01  9.5136007977124043e-02  1.3155048512554501e-01  7.5578554700315922e-02  9.6969967447283922e-02  6.8022753298790262e-02  1.2701037154286754e-01  8.0504167624045803e-02  6.6712891630192050e-01  8.0534336097380824e-02  9.3755046183094132e-02  5.1822767177689931e-02  5.8689546188505262e-02  8.9059170974169419e-02  5.7747322929354729e-02  1.0444045811312408e-01  1.0469172871542996e-01  6.6712891630192050e-01  6.6712891630192050e-01  6.6712891630192050e-01  6.6712891630192050e-01  6.6712891630192050e-01  6.6712891630192050e-01  6.6712891630192050e-01  6.6712891630192050e-01  6.6712891630192050e-01  1.1541552006997341e-01  6.6712891630192050e-01  1.6515411257757226e-01  6.6712891630192050e-01  5.7839739372490727e-02  3.1692276563036269e-02  4.9562495612696565e-02  4.2779534265058719e-02  4.1870899958077752e-02  1.0728278716934719e-01  6.6712891630192050e-01  4.1315846619789126e-02  4.1309870577863866e-02  3.6752472618509210e-02  1.4647671356206823e-01  1.1967754589325046e-01  1.9011065114843535e-02  1.7749307931327958e-02  1.1978430545390144e-02  2.6708354970423925e-02  2.4583821252827542e-02  1.6942892546258265e-02  0.0000000000000000e+00  2.1078152151758896e-02  6.6712891630192050e-01  1.2133959382353521e-01  6.6712891630192050e-01  1.7944860650377462e-01  0.0000000000000000e+00  2.7555240454820445e-01  7.8679353871644320e-02  5.0393312395907067e-02  6.6712891630192050e-01  9.5696637548756125e-02  6.6712891630192050e-01  9.1083042594443081e-02  2.5663445419760844e-01  4.3060913160620051e-02  3.0296627816318793e-02  1.0385234559266092e-01  1.1177857341565593e-01  0.0000000000000000e+00  3.0315084407867503e-02  0.0000000000000000e+00  0.0000000000000000e+00  0.0000000000000000e+00  0.0000000000000000e+00  2.8306036913860155e-01  1.3266645049814563e-01  6.6712891630192050e-01  1.2701249153374400e-01  7.0847191445887248e-02  5.3106196974722575e-02  6.6712891630192050e-01  1.0277355871731769e-01  4.8636401790962555e-02  6.6712891630192050e-01  1.1759276385373955e-01  2.4462305938480800e-02  3.5195858882836807e-02  0.0000000000000000e+00  7.8077629699983789e-02  5.5446634701888126e-02  1.2987099943221943e-02  1.4089869152350578e-02  1.2626300458015261e-02  1.4658042861658233e-01  7.0773810798649042e-02  6.6712891630192050e-01  1.6881747644637604e-01  6.6712891630192050e-01  4.1462334362564697e-02  3.2046355938942436e-02  6.6712891630192050e-01  6.6712891630192050e-01  1.1027609868331030e-01  1.6606593463977465e-01  3.0333400254558446e-01  1.3866901776316734e-01  5.3253313954946278e-02  0.0000000000000000e+00  2.8597873186849292e-02  6.6712891630192050e-01  1.4795145986487073e-02  2.3773449760588258e-02  4.4225480962918715e-02  4.7060646224759778e-02  4.5823411191236292e-02  4.9978509777975910e-02  1.1717193471368775e-01  1.6191245219594685e-01  8.3405752831415908e-02  4.8324624743036788e-02  9.6923699426712917e-02  1.0561913100948507e-02  6.3467870325845027e-02  3.4829615044839328e-02  6.2078128253837468e-02  8.4893233323743558e-02  4.9496870853484504e-02  2.3424855994107395e-02  3.3987845941376701e-02  6.6712891630192050e-01  1.0811388455730023e-01  6.6712891630192050e-01  1.2179357672545335e-01  4.4786998464672288e-02  4.5532077971069514e-02  1.1037137846118931e-02  1.9517952561059045e-02  3.3282385886113991e-01  6.6712891630192050e-01  6.6712891630192050e-01  9.4253595324127089e-03  5.7754315362654367e-03  5.5913535313602492e-02  7.0460452944633531e-02  1.6507107921950995e-01  0.0000000000000000e+00  3.7088783713771854e-02  1.4434909325972467e-01  6.6712891630192050e-01  6.7226939454797796e-02  7.3654628515558818e-02  1.0288948646674025e-01  4.8949470154602145e-02  7.0870488683708210e-02  6.9382376977072530e-02  6.6712891630192050e-01  6.9007485621956813e-02  6.0099773775166655e-02  4.6198112569034902e-02  5.7280746163677385e-02  5.3415977322478381e-02  4.7091311393175059e-02  3.6631751161194721e-02  1.3578189598849932e-01  5.9577973961136413e-02  4.3836160816052114e-02  1.0278446830904804e-01  6.6712891630192050e-01  1.1260038516979358e-01  7.2026313894641036e-02  6.3826441438485398e-02  1.5876217383667460e-01  1.2506931085656953e-01  5.2765144031133825e-02  4.0058948724990856e-02  9.1746660558264165e-02  5.6366916620532323e-02  3.9736569165951717e-02  7.9834214209578147e-02  4.1895049298276234e-02  1.4060763050895522e-01  6.6712891630192050e-01  4.3636641917553266e-02  6.2642198991238573e-02  1.1291637659406609e-01  1.0721398040274372e-02  6.6712891630192050e-01  5.5941465593097942e-02  8.7892463104441820e-02  1.3994443950312210e-01  6.4145324164860046e-02  8.7100537966917219e-02  3.2130535686064859e-01  1.1463166385179789e-02  7.6760075065454181e-02  1.5800451995845191e-01  8.7592560606494767e-03  6.0028925041383961e-03  2.0802587877131390e-01  6.6712891630192050e-01  4.6249010652143568e-02  6.0546317709792678e-02  3.0368601620434932e-01  1.2984164020216063e-01  1.2831951552515544e-01  6.7436191618962568e-02  2.7434212168917661e-02  2.7910869694054014e-02  7.4359979803268306e-02  8.4291092269896412e-03  9.3298642389338340e-02  4.2783148508791911e-02  8.8921369364655556e-02  5.9953443952741103e-02  3.0638340189034701e-02  0.0000000000000000e+00  4.6639961532371078e-02  1.4703773129610529e-02  </DataArray> 
</PointData> 
</Piece>
</UnstructuredGrid>
</VTKFile>