<?xml version="1.0"?>
<VTKFile type="UnstructuredGrid"  version="0.1"  >
<UnstructuredGrid>
<Piece  NumberOfPoints="458" NumberOfCells="832">
<Points>
<DataArray  type="Float64"  NumberOfComponents="3"  format="ascii">1.89999999851 0.173205083338 0  1.100000014951 1.558845700916 0  1.899999976859 -0.173205070838 0  1.100000014951 -1.558845700916 0  0.79999999702 -1.732050782569 0  -0.79999999702 -1.732050776482 0  -1.100000014951 -1.558845700916 0  -1.899999976859 -0.173205070838 0  -1.79999999702 0 0  -1.900000020161 0.173205095838 0  -1.099999993301 1.558845688416 0  -0.79999999702 1.732050776482 0  0.79999999702 1.732050782569 0  0.319999992847 0 0  1.800000000564919 0.3464101605351311 0  1.700000002620031 0.5196152377323734 0  1.600000004675143 0.692820314929615 0  1.500000006730255 0.8660253921268568 0  1.400000008785367 1.039230469324099 0  1.300000010840478 1.212435546521341 0  1.200000012895589 1.385640623718584 0  1.826794919787441 0.1000000069028046 0  1.79999999702 1.250015836376237e-08 0  1.826794907287283 -0.099999985251895 0  1.20000001289601 -1.385640623718855 0  1.300000010840887 -1.212435546521633 0  1.400000008785764 -1.039230469324411 0  1.50000000673064 -0.8660253921271891 0  1.600000004675517 -0.6928203149299665 0  1.700000002620394 -0.5196152377327439 0  1.800000000565272 -0.3464101605355203 0  1.000000010135792 -1.532050773502 0  0.9000000026047366 -1.558845690780259 0  0.8267949163226551 -1.63205077558038 0  -0.5999999977650006 -1.732050807569 0  -0.3999999985100012 -1.732050807569 0  -0.1999999992550012 -1.732050807569 0  -1.110223024625157e-15 -1.732050807569001 0  0.199999999254999 -1.732050807569001 0  0.3999999985099993 -1.732050807569001 0  0.5999999977649997 -1.732050807569001 0  -0.8267949186052803 -1.632050771626757 0  -0.9000000052404853 -1.558845689258509 0  -1.000000011657542 -1.532050773502 0  -1.80000000056484 -0.3464101605352689 0  -1.700000002619963 -0.5196152377324909 0  -1.600000004675086 -0.6928203149297129 0  -1.50000000673021 -0.8660253921269347 0  -1.400000008785332 -1.039230469324158 0  -1.300000010840455 -1.21243554652138 0  -1.200000012895578 -1.385640623718604 0  -1.858578628397188 -0.141421345086162 0  -1.826794910412323 -0.09999999066462284 0  -1.8068148302461 -0.05176380375471544 0  -1.806814833481379 0.05176381582894065 0  -1.82679492291248 0.1000000123155314 0  -1.858578654914027 0.1414213716030013 0  -1.200000012896172 1.385640623718575 0  -1.300000010841052 1.212435546521347 0  -1.400000008785931 1.039230469324121 0  -1.500000006730811 0.8660253921268936 0  -1.600000004675691 0.6928203149296657 0  -1.700000002620571 0.5196152377324381 0  -1.800000000565452 0.3464101605352095 0  -0.9999999929079547 1.532050773502 0  -0.8999999944154055 1.558845695508372 0  -0.8267949154803489 1.632050777039297 0  0.5999999977650006 1.732050807569 0  0.3999999985100012 1.732050807569 0  0.1999999992550012 1.732050807569 0  1.110223024625157e-15 1.732050807569 0  -0.199999999254999 1.732050807569 0  -0.3999999985099993 1.732050807569 0  -0.5999999977649997 1.732050807569 0  0.8267949163226553 1.63205077558038 0  0.9000000026047372 1.558845690780259 0  1.000000010135792 1.532050773502 0  0.2262741649217603 0.2262741649217604 0  -1.225141956270872e-16 0.319999992847 0  -0.2262741649217606 0.2262741649217602 0  -0.319999992847 -3.871369352296243e-16 0  -0.2262741649217604 -0.2262741649217604 0  -3.43000132995988e-16 -0.319999992847 0  0.2262741649217602 -0.2262741649217606 0  -1.32403227008249 -0.1655481618264791 0  -0.6559545001721463 0.834831333527045 0  -0.6191324613560272 -0.8741963010775502 0  0.6518296435701447 -0.7791739169485039 0  0.5632210527941763 0.8021260071304711 0  1.130293756453899 -0.1279621763024616 0  -1.461712362090102 0.1190783395122679 0  9.899570052596118e-10 1.071362033067026 0  -3.183528995975848e-10 -1.071362032187092 0  -0.9173861017199769 0.2603195491201329 0  1.074949847941503 0.460358358492222 0  -0.8065588731879085 -0.3159356407839176 0  -1.569722542613223 -0.1093617800402951 0  -1.673769442513438 -0.2626283701225128 0  -0.5635866351940764 1.242851209417302 0  -0.5598007095572424 -1.251573502084433 0  0.5638384137458936 -1.234893993876831 0  0.5573095865749496 1.237225622765117 0  1.389206549287774 0.1108386526553084 0  1.036555967380581 -0.6425789452392957 0  1.481102457895208 -0.2057972302793381 0  -1.156711300658747 -0.4893931744805272 0  -0.9041757277480991 1.159522207920891 0  -0.9041757295712607 -1.159522202691768 0  0.9041757291274908 -1.15952220396478 0  0.8918105025079943 1.101608161990076 0  -1.059325271771506 0.6559214418832671 0  0.6410368259045096 -0.3487674155795288 0  0.6787218978266278 0.3574434174696062 0  -1.631838781633664 0.2884164889910588 0  1.634220711342343 0.2159440448888993 0  -0.4844594889400557 0.404353903131473 0  -0.466832278464886 -0.4305270217586601 0  0.1830450209317946 0.7132950468466426 0  0.185506562858873 -0.7157604202338106 0  -0.2117235312324399 0.7157007805003385 0  -0.6364741358352903 1.522169026678317 0  0.6364741422703739 -1.522169026310948 0  0.6364741265906544 1.522169047552075 0  -0.6364741298905381 -1.522169045769297 0  1.153245653969795 0.8125435811252458 0  -1.675290235500546 0.08173492774153664 0  -1.716846627169645 -0.09546304681612794 0  -0.2162552305693515 -1.404671790267723 0  0.2222638991767358 1.393455111054298 0  -0.2136026320640432 -0.7613804003943083 0  -1.350126001035187 0.4222907150240823 0  0.2266518796062817 -1.398690222581374 0  -0.2254469940828132 1.399899560806989 0  0.7727797158409135 -0.0346573635232891 0  -1.202472302245696 0.09231908130098411 0  1.389104166823814 0.4728013220705489 0  1.306408918641911 -0.5218831830269506 0  -1.118393238467754 -0.8595765265729055 0  -1.483332104487766 -0.3410763668055316 0  -1.000000021673877 -1.36020781303683 0  1.000000018844721 -1.360207814957552 0  1.000000018844257 1.360207814957642 0  -1.000000010053948 1.360207820925555 0  1.096763761276131 0.1659251913444485 0  0.3133386268227811 1.031331000374428 0  0.329680055380664 -1.007007473240028 0  1.691035586012954 -0.178380648964582 0  1.59692213245873 -0.006233856742581054 0  -0.3286579601255153 1.042940983465423 0  1.135377526486168 -0.9369518106758185 0  -0.6666609353928488 -0.0347164408773531 0  -1.02421962834045 -0.1284425332113929 0  -0.8388083608581667 -0.6035800904860518 0  -0.7906711369348565 -1.379316015040293 0  0.7949696095403955 1.363779517252508 0  -0.7906711479877582 1.379316033299444 0  0.790671153106679 -1.379316026272514 0  -0.7794313524841043 0.5335251661142921 0  0.3179916877369648 -0.3906878064959698 0  -1.132329475310357 0.9597530835481207 0  0.8706169569015501 0.6760387441929983 0  -0.3145384984381669 -1.075380959373884 0  -1.772834810415322 -0.2229415465613838 0  0.306988950262191 0.3966495573020577 0  -1.431999086511746 -0.5809716244878878 0  0.9242220838258843 -0.3771439842560163 0  -1.761048750668734 0.2252040258758886 0  -1.059929201982837 0.1763193152105585 0  -1.276299151640442 0.2573048981625332 0  -1.133756051377582 0.3413051320721076 0  1.259750152870836 -0.008561761823576611 0  1.435154503591491 -0.04747928881201485 0  1.305698107174553 -0.1668797032908999 0  0.7880258636980146 -0.5781589506022601 0  0.9803890256032326 -0.509861464747656 0  0.8441928054753629 -0.7108764310938998 0  -1.204725636403347 0.5391060784536746 0  -0.9883556867457415 0.4581204955017 0  1.085966746933375 -0.7897653779575571 0  0.8936035850281565 -0.8580628638121612 0  1.767110354926075 0.1945745641133941 0  1.667110356981187 0.3677796413106363 0  1.695517794316674 -0.3489979433486629 0  1.7955177814361 -0.1757928599010775 0  0.6464332347373272 -0.5639706662640164 0  0.7826294548651971 -0.3629556999177725 0  -0.8576398859718259 0.745376387705156 0  -1.095827373540931 0.8078372627156939 0  -0.8941419877412518 0.8972922085375828 0  1.39375568826856 -0.3638402066531443 0  1.218351337547905 -0.3249226796647061 0  -0.8687628499118905 -0.8668864138252279 0  -0.97860079966296 -0.7315783085294787 0  -0.7289704111070971 -0.738888195781801 0  -1.018252601529228 1.059637645734506 0  -0.7800651139601227 0.997176770723968 0  0.7780026863488176 -0.969348060456642 0  1.019776627806829 -1.048237007320299 0  -0.7616540954636442 -1.016859251884659 0  -1.011284484019507 -1.009549364632337 0  -1.05000001250262 1.459526760920679 0  -1.1500000104475 1.286321683723451 0  -1.150000016257167 -1.286321679779105 0  -1.050000018312423 -1.459526756976441 0  1.150000014842367 1.286321680739491 0  1.050000016897479 1.459526757936735 0  1.050000016897927 -1.459526757936815 0  1.150000014842804 -1.286321680739593 0  1.115315501233898 -0.4495135836414834 0  1.027257920139891 -0.252553080279239 0  -0.5182370671726448 1.627109917123658 0  -0.718237066427645 1.627109901580158 0  0.5182370703901866 -1.627109916939975 0  0.718237069645187 -1.627109904439974 0  -0.7182370634552688 -1.627109926669149 0  -0.5182370642002696 -1.627109926669149 0  0.7182370618053273 1.627109927560538 0  0.5182370625503276 1.627109927560538 0  -0.3880279700632969 -1.328122646176078 0  -0.4263646802299448 -1.46342041801851 0  -0.5981374197238902 -1.386871273926865 0  0.3897867428758426 1.315340366909707 0  0.4293690128836951 1.457812079303186 0  0.5968918565828019 1.379697335158596 0  1.085856804608817 0.3131417749183352 0  0.8877428295513794 0.2616843044070273 0  0.8768358728840651 0.4089008879809141 0  -0.3081276145396763 -1.568361298918362 0  0.3111319488433684 1.562752959311649 0  -1.17412594921147 -0.146995347518936 0  -1.090465464499599 -0.30891785384596 0  -1.240371785370618 -0.3274706681535031 0  -1.320021702573257 -0.4152347706430294 0  -1.403682187285128 -0.2533122643160053 0  -1.751042579206513 0.09086747002853399 0  -1.737645116260273 0.04086746387076829 0  0.9347717385585221 0.06563391391057971 0  0.7257508068337706 0.1613930269731585 0  0.4849106656535547 -0.5849308617222369 0  0.4795142568207371 -0.3697276110377493 0  0.09275328142943629 -0.5178802065404053 0  -0.01404803460258508 -0.7385704103140595 0  -0.1068013160320218 -0.5406901
[...]
<PointData  Scalars="f_17"> 
<DataArray  type="Float64"  Name="f_17"  format="ascii">7.6836540728827407e-01  5.4510337252955610e-01  8.2748670417755299e-01  8.7700230546035896e-01  9.3940929530376582e-01  9.5187777958070607e-01  7.9402673953755887e-01  8.4167005648166082e-01  3.8083343554235949e-01  9.5149520650893021e-02  9.0385406008410718e-01  9.8984925238764032e-01  7.5796637763902497e-01  8.2512855075880398e-01  7.2324412300653218e-01  6.2425578684479210e-01  4.9239290747331665e-01  3.5705777036883446e-01  2.8565579351690734e-01  3.4432040661891311e-01  4.6692102743255354e-01  7.8633345424715639e-01  8.1684957743317388e-01  8.2786133338218781e-01  8.6023654529269256e-01  8.3679407039663456e-01  8.1751058455657410e-01  8.0687783274066727e-01  8.0685172331550603e-01  8.1573437850638209e-01  8.2561222809302870e-01  8.8706815691194429e-01  9.1147629398419916e-01  9.3269862634585399e-01  9.3929892180209595e-01  9.2253372598859318e-01  9.2115050089472295e-01  9.3137491126329952e-01  9.4747948501327461e-01  9.5979102125485027e-01  9.5317366268334680e-01  9.4903074698642409e-01  8.9655730635847597e-01  8.2203130570019722e-01  4.5716947243036921e-01  1.8028713533521787e-01  2.6978161722923344e-01  4.3318115820365155e-01  5.5870256322663303e-01  6.5508806297414923e-01  7.3895008476460522e-01  8.7032868254150675e-01  8.8654970632998575e-01  6.6877723751307294e-01  1.7651682878143174e-01  9.9327909198059242e-02  9.1750600797750451e-02  8.8471598499750914e-01  8.6737881367500880e-01  8.7477585146447845e-01  8.8041787107233294e-01  6.9861665038906173e-01  3.5649287798441265e-01  1.4807066639966615e-01  9.1550307343417292e-01  9.4700076293235647e-01  9.7933671885704543e-01  8.0748428567335429e-01  8.7233946229943260e-01  9.2429282066131235e-01  9.6522676132539753e-01  9.9177596270974355e-01  9.9773891322418784e-01  9.9740159080384527e-01  7.3423749436264008e-01  6.6394239528241539e-01  5.8073494718454388e-01  8.7647179708418144e-01  9.6753395412184595e-01  9.9999987562939763e-01  9.9999987562939763e-01  9.8645312750774761e-01  9.2410276170815919e-01  8.7804670396620577e-01  2.0439478786008927e-01  7.9434281952982644e-01  5.6462072794090068e-01  8.8640331245294435e-01  8.0319722934822391e-01  8.1464575580577903e-01  6.8387084500065656e-02  9.8348677290756059e-01  9.6080754905008803e-01  3.1252317978335992e-01  5.7470111586744699e-01  5.1272456783330478e-01  2.9892596464310489e-01  4.1381111169068369e-01  9.5985253225934586e-01  8.7167532060782205e-01  9.6462126324002684e-01  9.9999987562939763e-01  9.9999987562939774e-01  8.2017367371345251e-01  8.6043533962167940e-01  4.9903664796803088e-01  8.7598282383983395e-01  7.3983326771335567e-01  8.7823156026973115e-01  5.0191625957278252e-01  6.7949130001648506e-01  8.3311796756558698e-01  7.3510518815738113e-01  1.0665556947643633e-01  7.6931807586025980e-01  6.3655802733444578e-01  9.9999987562939763e-01  9.9999987562939752e-01  9.9999987562939763e-01  9.9999987562939752e-01  9.9999987562939763e-01  9.5797879516003936e-01  7.9626292732596726e-01  9.4854433378933467e-01  0.0000000000000000e+00  0.0000000000000000e+00  5.9432272451157953e-01  9.2399730074414121e-01  9.4747376061211874e-01  7.8056114993215064e-01  3.5849261417271372e-01  9.6451789722408787e-01  9.9168201482922846e-01  7.7911054534626989e-01  1.4833136313520801e-01  5.8389103420493671e-01  8.1201755176086921e-01  6.0646790825706964e-01  1.7488862097012595e-01  7.8484872486174928e-01  8.7870453698358630e-01  5.4121772436240656e-01  9.0109274971241660e-01  7.4246403618740930e-01  9.9999987562939763e-01  9.9999987562939763e-01  8.3677823038263777e-01  8.6019642630760540e-01  9.4281260817747037e-01  8.2808302707529291e-01  0.0000000000000000e+00  0.0000000000000000e+00  7.6100443676576468e-01  8.8134973002225847e-01  6.9152932684306578e-01  9.4906074787341743e-01  9.2179870159579880e-01  5.7652241293713224e-01  8.9819578160380342e-01  8.4236813274656941e-01  5.3013498537465176e-01  9.4947959317553077e-01  6.6187300404845539e-01  8.9017406033069779e-01  2.5703867437433658e-01  8.1162246350768541e-01  9.7730362963002526e-02  2.3390556536483537e-01  1.7510100697491060e-01  3.4679352582497747e-01  8.5885878875132105e-01  9.9999987562939774e-01  8.5579399754531482e-01  8.4038203693179792e-01  8.1716552436494849e-01  8.4537374528855758e-01  5.8677350913044857e-01  4.8679717663787681e-01  8.2372153893303957e-01  8.5152331568415385e-01  7.6740090912474335e-01  6.9406932289299539e-01  8.2557989703299217e-01  8.2907226103845744e-01  8.6103952642161785e-01  8.1887227864561207e-01  7.1653670157122507e-01  7.8920918578691213e-01  7.9201600254515658e-01  8.2732757548818014e-01  8.2059715160766156e-01  6.5557657264284253e-01  6.8121250571294700e-01  5.6877229841960641e-01  8.4647304609622154e-01  8.3857019235925268e-01  8.8316280106631662e-01  8.4973569294604967e-01  7.0606748331361291e-01  6.6583764720106320e-01  9.0419459847643002e-01  8.7756432260298667e-01  7.1680378631175001e-01  7.9396293452510180e-01  4.3227731515114826e-01  5.4596250468826424e-01  8.7799282397555989e-01  8.5469639181381218e-01  8.1229088279364170e-01  8.0572217342713692e-01  9.9830571403982205e-01  9.9999987562939763e-01  9.6223847859515599e-01  9.4266262501702536e-01  9.5530325918332371e-01  9.3011934508961847e-01  7.6518855645541806e-01  8.3775598963190856e-01  9.1059318482326423e-01  9.1636694271570240e-01  9.0868224599963321e-01  9.3886534817138190e-01  8.9081615722909369e-01  8.4071271988811291e-01  6.6822934244186127e-01  7.0358063162814088e-01  6.5207744654178712e-01  9.1946291856800200e-01  9.0569851149869685e-01  1.8231291107001030e-01  3.3704136171094984e-01  2.9308031804103557e-01  2.7613738889454298e-01  2.2057088015277138e-01  0.0000000000000000e+00  1.8677463227210400e-01  7.5705190207723061e-01  7.5358515377672974e-01  8.9859045669299797e-01  8.6295172592896152e-01  9.3411994803390697e-01  9.1684617446357008e-01  8.8133040292893405e-01  9.1836552697776130e-01  8.8266049166279603e-01  7.8906328487763688e-01  8.0680021528123924e-01  7.4265853446315699e-01  6.7344004314257244e-01  9.9999987562939763e-01  9.1884134669656881e-01  9.2620805896082736e-01  7.4089591311356684e-01  8.0793914904499353e-01  8.5623370406817678e-01  7.9371646135274387e-01  8.0397764507757974e-01  9.3505893076154434e-01  9.9999987562939774e-01  9.9999987562939763e-01  9.9999987562939763e-01  9.9999987562939774e-01  9.9999987562939763e-01  9.9999987562939774e-01  9.9999987562939763e-01  9.9999987562939752e-01  9.9999987562939752e-01  9.6309235265649185e-01  9.9999987562939763e-01  9.1507290462864754e-01  9.9999987562939763e-01  7.9877797405649464e-01  4.3220287024273518e-01  6.5918251567531194e-01  8.1213022197613827e-01  8.1243639532106149e-01  6.5306554777867298e-01  9.9999987562939763e-01  8.1351402325728084e-01  8.0697249170608143e-01  3.4451333001678364e-01  6.5453583460919817e-01  6.7176268986371679e-01  2.2048145556702117e-01  1.7041842070949564e-01  1.5180097596789077e-01  4.5310013258896831e-01  4.1425112732206909e-01  2.9250895760524964e-01  0.0000000000000000e+00  3.3584208900959889e-01  9.9999987562939752e-01  8.4497485124710348e-01  9.9999987562939752e-01  6.0499596701813163e-01  0.0000000000000000e+00  9.7590133833679127e-01  9.3361544287363463e-01  7.3267029481664447e-01  9.9999987562939752e-01  6.2684389430903209e-01  9.9999987562939763e-01  3.0817972832312945e-01  5.6543657607963971e-01  6.1000521219014603e-01  4.4139817158845751e-01  6.2007310855576703e-01  8.8386024250142781e-01  0.0000000000000000e+00  3.6302312614117505e-01  0.0000000000000000e+00  0.0000000000000000e+00  0.0000000000000000e+00  0.0000000000000000e+00  9.0945530216860671e-01  8.7832616909351879e-01  9.9999987562939763e-01  5.2834992625632471e-01  7.2678304932768956e-01  6.8149608332462341e-01  9.9999987562939763e-01  8.9851016944841444e-01  7.0007539524998963e-01  9.9999987562939774e-01  9.5911947435594236e-01  4.0755544464168469e-01  5.6593457386504775e-01  0.0000000000000000e+00  8.5257280743105168e-01  7.1824804807434317e-01  1.8573804330622276e-01  1.7221153742485629e-01  1.8285945406796794e-01  9.4564633377459806e-01  8.7783127541233319e-01  9.9999987562939763e-01  9.7571171847380012e-01  9.9999987562939763e-01  6.5875952030386087e-01  5.2706498868549967e-01  9.9999987562939763e-01  9.9999987562939763e-01  9.3701855754176722e-01  9.2256477380312585e-01  9.7752295522695531e-01  8.2945613795156103e-01  6.9547680487069319e-01  0.0000000000000000e+00  3.9683037814308125e-01  9.9999987562939752e-01  2.4617235397154744e-01  3.6873106161066715e-01  3.6388716115821906e-01  8.0214048738901356e-01  8.0507254791409777e-01  8.2944698768448188e-01  9.6896577980002063e-01  9.7739494149832506e-01  9.5918535490159074e-01  2.5355694804123091e-01  4.0230124142535223e-01  1.4899013657717516e-01  5.8705186666076359e-01  4.7722847617651659e-01  9.2629850235341693e-01  9.4824123327658105e-01  8.0039062150929829e-01  3.5384198531263511e-01  5.1393303599835971e-01  9.9999987562939763e-01  9.6910896733080321e-01  9.9999987562939752e-01  9.8067848118742507e-01  7.9839918004975441e-01  7.8500760851461115e-01  1.5187921404204055e-01  2.2389104328046022e-01  7.2372994631637477e-01  9.9999987562939774e-01  9.9999987562939752e-01  8.5186405613040153e-02  6.0255171004108897e-02  8.5467104452460041e-01  3.8543873661303396e-01  5.4220850613840366e-01  0.0000000000000000e+00  5.9839707078437954e-01  9.7804216245459774e-01  9.9999987562939763e-01  9.4051385871823356e-01  9.4241617209915818e-01  9.7270871655452684e-01  8.2661683490237481e-01  8.5035034026102962e-01  9.4346573613159157e-01  9.9999987562939763e-01  8.9206724770683310e-01  8.6801506526013095e-01  6.9533284261505546e-01  7.6491898192852148e-01  8.7860687376667845e-01  8.5094170335654928e-01  5.1959777320425637e-01  5.2900907439716738e-01  8.4488343351274542e-01  8.1315681637371673e-01  9.1301515091673879e-01  9.9999987562939763e-01  8.7349293505621606e-01  8.0272248716712413e-01  8.9973931256041750e-01  9.4708969142854393e-01  7.9894715183044263e-01  6.1823468404011006e-01  6.1513503750587928e-01  8.3602014625091592e-01  8.9343966460494173e-01  6.0171478512925214e-01  9.2178365483982794e-01  5.7204310175553241e-01  9.6585376108568699e-01  9.9999987562939774e-01  8.3062222075466008e-01  8.6160435110884848e-01  9.3689725583528449e-01  9.9018367157893680e-02  9.9999987562939763e-01  8.3076462893476632e-01  9.1219969584752791e-01  9.3596304692438914e-01  8.2856028019441597e-01  8.2347514378841213e-01  7.9067420939949595e-01  1.6460779706600123e-01  9.2844593404723408e-01  9.6145785608284662e-01  9.5732252635890899e-02  6.9550737190991141e-02  8.9964188662021694e-01  9.9999987562939774e-01  6.7032542773844983e-01  7.5460843337965822e-01  9.7801973145044563e-01  9.4771277526483533e-01  9.4397415210233149e-01  9.1479293265456096e-01  2.6515780983107190e-01  2.5312162147933998e-01  8.4787509906282177e-01  1.0484201325864669e-01  8.2991024809333913e-01  6.1122972902254225e-01  9.2154699059507672e-01  8.9780925567738612e-01  2.6593769712383769e-01  0.0000000000000000e+00  3.4634238413113283e-01  1.8184395224669514e-01  </DataArray> 
</PointData> 
</Piece>
</UnstructuredGrid>
</VTKFile>