<?xml version="1.0"?>
<VTKFile type="UnstructuredGrid"  version="0.1"  >
<UnstructuredGrid>
<Piece  NumberOfPoints="458" NumberOfCells="832">
<Points>
<DataArray  type="Float64"  NumberOfComponents="3"  format="ascii">1.89999999851 0.173205083338 0  1.100000014951 1.558845700916 0  1.899999976859 -0.173205070838 0  1.100000014951 -1.558845700916 0  0.79999999702 -1.732050782569 0  -0.79999999702 -1.732050776482 0  -1.100000014951 -1.558845700916 0  -1.899999976859 -0.173205070838 0  -1.79999999702 0 0  -1.900000020161 0.173205095838 0  -1.099999993301 1.558845688416 0  -0.79999999702 1.732050776482 0  0.79999999702 1.732050782569 0  0.319999992847 0 0  1.800000000564919 0.3464101605351311 0  1.700000002620031 0.5196152377323734 0  1.600000004675143 0.692820314929615 0  1.500000006730255 0.8660253921268568 0  1.400000008785367 1.039230469324099 0  1.300000010840478 1.212435546521341 0  1.200000012895589 1.385640623718584 0  1.826794919787441 0.1000000069028046 0  1.79999999702 1.250015836376237e-08 0  1.826794907287283 -0.099999985251895 0  1.20000001289601 -1.385640623718855 0  1.300000010840887 -1.212435546521633 0  1.400000008785764 -1.039230469324411 0  1.50000000673064 -0.8660253921271891 0  1.600000004675517 -0.6928203149299665 0  1.700000002620394 -0.5196152377327439 0  1.800000000565272 -0.3464101605355203 0  1.000000010135792 -1.532050773502 0  0.9000000026047366 -1.558845690780259 0  0.8267949163226551 -1.63205077558038 0  -0.5999999977650006 -1.732050807569 0  -0.3999999985100012 -1.732050807569 0  -0.1999999992550012 -1.732050807569 0  -1.110223024625157e-15 -1.732050807569001 0  0.199999999254999 -1.732050807569001 0  0.3999999985099993 -1.732050807569001 0  0.5999999977649997 -1.732050807569001 0  -0.8267949186052803 -1.632050771626757 0  -0.9000000052404853 -1.558845689258509 0  -1.000000011657542 -1.532050773502 0  -1.80000000056484 -0.3464101605352689 0  -1.700000002619963 -0.5196152377324909 0  -1.600000004675086 -0.6928203149297129 0  -1.50000000673021 -0.8660253921269347 0  -1.400000008785332 -1.039230469324158 0  -1.300000010840455 -1.21243554652138 0  -1.200000012895578 -1.385640623718604 0  -1.858578628397188 -0.141421345086162 0  -1.826794910412323 -0.09999999066462284 0  -1.8068148302461 -0.05176380375471544 0  -1.806814833481379 0.05176381582894065 0  -1.82679492291248 0.1000000123155314 0  -1.858578654914027 0.1414213716030013 0  -1.200000012896172 1.385640623718575 0  -1.300000010841052 1.212435546521347 0  -1.400000008785931 1.039230469324121 0  -1.500000006730811 0.8660253921268936 0  -1.600000004675691 0.6928203149296657 0  -1.700000002620571 0.5196152377324381 0  -1.800000000565452 0.3464101605352095 0  -0.9999999929079547 1.532050773502 0  -0.8999999944154055 1.558845695508372 0  -0.8267949154803489 1.632050777039297 0  0.5999999977650006 1.732050807569 0  0.3999999985100012 1.732050807569 0  0.1999999992550012 1.732050807569 0  1.110223024625157e-15 1.732050807569 0  -0.199999999254999 1.732050807569 0  -0.3999999985099993 1.732050807569 0  -0.5999999977649997 1.732050807569 0  0.8267949163226553 1.63205077558038 0  0.9000000026047372 1.558845690780259 0  1.000000010135792 1.532050773502 0  0.2262741649217603 0.2262741649217604 0  -1.225141956270872e-16 0.319999992847 0  -0.2262741649217606 0.2262741649217602 0  -0.319999992847 -3.871369352296243e-16 0  -0.2262741649217604 -0.2262741649217604 0  -3.43000132995988e-16 -0.319999992847 0  0.2262741649217602 -0.2262741649217606 0  -1.32403227008249 -0.1655481618264791 0  -0.6559545001721463 0.834831333527045 0  -0.6191324613560272 -0.8741963010775502 0  0.6518296435701447 -0.7791739169485039 0  0.5632210527941763 0.8021260071304711 0  1.130293756453899 -0.1279621763024616 0  -1.461712362090102 0.1190783395122679 0  9.899570052596118e-10 1.071362033067026 0  -3.183528995975848e-10 -1.071362032187092 0  -0.9173861017199769 0.2603195491201329 0  1.074949847941503 0.460358358492222 0  -0.8065588731879085 -0.3159356407839176 0  -1.569722542613223 -0.1093617800402951 0  -1.673769442513438 -0.2626283701225128 0  -0.5635866351940764 1.242851209417302 0  -0.5598007095572424 -1.251573502084433 0  0.5638384137458936 -1.234893993876831 0  0.5573095865749496 1.237225622765117 0  1.389206549287774 0.1108386526553084 0  1.036555967380581 -0.6425789452392957 0  1.481102457895208 -0.2057972302793381 0  -1.156711300658747 -0.4893931744805272 0  -0.9041757277480991 1.159522207920891 0  -0.9041757295712607 -1.159522202691768 0  0.9041757291274908 -1.15952220396478 0  0.8918105025079943 1.101608161990076 0  -1.059325271771506 0.6559214418832671 0  0.6410368259045096 -0.3487674155795288 0  0.6787218978266278 0.3574434174696062 0  -1.631838781633664 0.2884164889910588 0  1.634220711342343 0.2159440448888993 0  -0.4844594889400557 0.404353903131473 0  -0.466832278464886 -0.4305270217586601 0  0.1830450209317946 0.7132950468466426 0  0.185506562858873 -0.7157604202338106 0  -0.2117235312324399 0.7157007805003385 0  -0.6364741358352903 1.522169026678317 0  0.6364741422703739 -1.522169026310948 0  0.6364741265906544 1.522169047552075 0  -0.6364741298905381 -1.522169045769297 0  1.153245653969795 0.8125435811252458 0  -1.675290235500546 0.08173492774153664 0  -1.716846627169645 -0.09546304681612794 0  -0.2162552305693515 -1.404671790267723 0  0.2222638991767358 1.393455111054298 0  -0.2136026320640432 -0.7613804003943083 0  -1.350126001035187 0.4222907150240823 0  0.2266518796062817 -1.398690222581374 0  -0.2254469940828132 1.399899560806989 0  0.7727797158409135 -0.0346573635232891 0  -1.202472302245696 0.09231908130098411 0  1.389104166823814 0.4728013220705489 0  1.306408918641911 -0.5218831830269506 0  -1.118393238467754 -0.8595765265729055 0  -1.483332104487766 -0.3410763668055316 0  -1.000000021673877 -1.36020781303683 0  1.000000018844721 -1.360207814957552 0  1.000000018844257 1.360207814957642 0  -1.000000010053948 1.360207820925555 0  1.096763761276131 0.1659251913444485 0  0.3133386268227811 1.031331000374428 0  0.329680055380664 -1.007007473240028 0  1.691035586012954 -0.178380648964582 0  1.59692213245873 -0.006233856742581054 0  -0.3286579601255153 1.042940983465423 0  1.135377526486168 -0.9369518106758185 0  -0.6666609353928488 -0.0347164408773531 0  -1.02421962834045 -0.1284425332113929 0  -0.8388083608581667 -0.6035800904860518 0  -0.7906711369348565 -1.379316015040293 0  0.7949696095403955 1.363779517252508 0  -0.7906711479877582 1.379316033299444 0  0.790671153106679 -1.379316026272514 0  -0.7794313524841043 0.5335251661142921 0  0.3179916877369648 -0.3906878064959698 0  -1.132329475310357 0.9597530835481207 0  0.8706169569015501 0.6760387441929983 0  -0.3145384984381669 -1.075380959373884 0  -1.772834810415322 -0.2229415465613838 0  0.306988950262191 0.3966495573020577 0  -1.431999086511746 -0.5809716244878878 0  0.9242220838258843 -0.3771439842560163 0  -1.761048750668734 0.2252040258758886 0  -1.059929201982837 0.1763193152105585 0  -1.276299151640442 0.2573048981625332 0  -1.133756051377582 0.3413051320721076 0  1.259750152870836 -0.008561761823576611 0  1.435154503591491 -0.04747928881201485 0  1.305698107174553 -0.1668797032908999 0  0.7880258636980146 -0.5781589506022601 0  0.9803890256032326 -0.509861464747656 0  0.8441928054753629 -0.7108764310938998 0  -1.204725636403347 0.5391060784536746 0  -0.9883556867457415 0.4581204955017 0  1.085966746933375 -0.7897653779575571 0  0.8936035850281565 -0.8580628638121612 0  1.767110354926075 0.1945745641133941 0  1.667110356981187 0.3677796413106363 0  1.695517794316674 -0.3489979433486629 0  1.7955177814361 -0.1757928599010775 0  0.6464332347373272 -0.5639706662640164 0  0.7826294548651971 -0.3629556999177725 0  -0.8576398859718259 0.745376387705156 0  -1.095827373540931 0.8078372627156939 0  -0.8941419877412518 0.8972922085375828 0  1.39375568826856 -0.3638402066531443 0  1.218351337547905 -0.3249226796647061 0  -0.8687628499118905 -0.8668864138252279 0  -0.97860079966296 -0.7315783085294787 0  -0.7289704111070971 -0.738888195781801 0  -1.018252601529228 1.059637645734506 0  -0.7800651139601227 0.997176770723968 0  0.7780026863488176 -0.969348060456642 0  1.019776627806829 -1.048237007320299 0  -0.7616540954636442 -1.016859251884659 0  -1.011284484019507 -1.009549364632337 0  -1.05000001250262 1.459526760920679 0  -1.1500000104475 1.286321683723451 0  -1.150000016257167 -1.286321679779105 0  -1.050000018312423 -1.459526756976441 0  1.150000014842367 1.286321680739491 0  1.050000016897479 1.459526757936735 0  1.050000016897927 -1.459526757936815 0  1.150000014842804 -1.286321680739593 0  1.115315501233898 -0.4495135836414834 0  1.027257920139891 -0.252553080279239 0  -0.5182370671726448 1.627109917123658 0  -0.718237066427645 1.627109901580158 0  0.5182370703901866 -1.627109916939975 0  0.718237069645187 -1.627109904439974 0  -0.7182370634552688 -1.627109926669149 0  -0.5182370642002696 -1.627109926669149 0  0.7182370618053273 1.627109927560538 0  0.5182370625503276 1.627109927560538 0  -0.3880279700632969 -1.328122646176078 0  -0.4263646802299448 -1.46342041801851 0  -0.5981374197238902 -1.386871273926865 0  0.3897867428758426 1.315340366909707 0  0.4293690128836951 1.457812079303186 0  0.5968918565828019 1.379697335158596 0  1.085856804608817 0.3131417749183352 0  0.8877428295513794 0.2616843044070273 0  0.8768358728840651 0.4089008879809141 0  -0.3081276145396763 -1.568361298918362 0  0.3111319488433684 1.562752959311649 0  -1.17412594921147 -0.146995347518936 0  -1.090465464499599 -0.30891785384596 0  -1.240371785370618 -0.3274706681535031 0  -1.320021702573257 -0.4152347706430294 0  -1.403682187285128 -0.2533122643160053 0  -1.751042579206513 0.09086747002853399 0  -1.737645116260273 0.04086746387076829 0  0.9347717385585221 0.06563391391057971 0  0.7257508068337706 0.1613930269731585 0  0.4849106656535547 -0.5849308617222369 0  0.4795142568207371 -0.3697276110377493 0  0.09275328142943629 -0.5178802065404053 0  -0.01404803460258508 -0.7385704103140595 0  -0.1068013160320218 -0.5406901
[...]
<PointData  Scalars="f_17"> 
<DataArray  type="Float64"  Name="f_17"  format="ascii">6.8330502976579643e-01  4.8146496605562300e-01  7.2321716027720373e-01  7.5635597639713170e-01  8.6530348037636040e-01  9.1606971393723724e-01  7.2895888312843782e-01  8.4031893843328131e-01  3.7970761421939558e-01  9.2634942289656685e-02  8.3304433724345128e-01  9.8155549560157251e-01  6.8064213987070554e-01  7.2043759215374337e-01  6.4081989916587345e-01  5.4623857534181386e-01  4.2384794097025064e-01  3.0391229511088275e-01  2.4396172319361004e-01  2.9909331111578513e-01  4.1033816873492696e-01  7.0202712706627834e-01  7.2930486972220887e-01  7.2968685939693845e-01  7.3003165635799150e-01  6.9602153153726243e-01  6.7087216103597302e-01  6.6027818686823447e-01  6.6664318108895615e-01  6.8781634264480307e-01  7.1231837927689712e-01  7.7416646706482428e-01  8.1743278214290060e-01  8.5433492740382455e-01  8.8335272368927409e-01  8.3951245938766206e-01  8.2500125318618034e-01  8.3850605979492321e-01  8.7128271240469968e-01  9.0126153144102927e-01  8.9132690250590285e-01  9.1959020054584373e-01  8.5911908045096086e-01  7.6443797311569694e-01  4.5267861338961479e-01  1.7127532183100180e-01  2.4241009526038657e-01  3.8435690508061365e-01  4.9319809991118330e-01  5.8093783519018649e-01  6.6649450615831396e-01  8.6927259016884162e-01  8.8602652777149760e-01  6.6787902607888294e-01  1.7545753498936079e-01  9.7784333015564828e-02  8.9497009206857853e-02  8.0629597874004777e-01  7.9066842390933778e-01  8.1835160828645137e-01  8.5442606777095109e-01  6.8760916638850833e-01  3.4928466474449027e-01  1.4384522775391004e-01  8.5323663989403065e-01  9.0751220895117968e-01  9.6343274062964557e-01  7.3108514353079945e-01  8.0177744914664073e-01  8.6746259016219418e-01  9.3291233431942489e-01  9.8281126287451914e-01  9.9437594988491640e-01  9.9435958363898658e-01  6.6004429709431256e-01  5.9556537040654400e-01  5.1610245048357017e-01  8.1120400998076803e-01  9.5190844842174471e-01  9.9998154176600429e-01  9.9998154176600429e-01  9.8160995364053261e-01  8.8962022355262427e-01  7.9625889984650744e-01  1.9442769069102320e-01  7.3242704303059214e-01  5.3866676323236928e-01  7.8974224163283202e-01  7.6606635344196594e-01  7.1227115294530197e-01  6.6079873952509499e-02  9.6831797598955993e-01  9.2079940794601289e-01  2.8332344337056314e-01  4.9872797326594348e-01  5.0853742929985479e-01  2.9366092003357885e-01  4.0929341682732090e-01  9.3860552899903205e-01  8.1741702844024677e-01  9.2909595827242253e-01  9.9998154176600429e-01  9.9998154176600418e-01  6.8359631070687343e-01  7.7253190093530011e-01  4.8032299427025310e-01  8.0919519575171828e-01  6.7686639041354923e-01  7.6582856823655276e-01  4.6469003603169690e-01  6.3192025661834705e-01  7.1724499004662401e-01  6.4399022197606481e-01  1.0373559859350807e-01  6.9555392884039247e-01  6.0936984907320912e-01  9.9998154176600407e-01  9.9998154176600429e-01  9.9998154176600418e-01  9.9998154176600418e-01  9.9998154176600418e-01  9.0713613009237626e-01  7.2932830167926144e-01  9.0955318919698114e-01  0.0000000000000000e+00  0.0000000000000000e+00  5.9220468290781836e-01  8.4203537367400427e-01  9.0866682977434765e-01  7.7069380775045704e-01  3.4547687935502996e-01  9.1458535287045095e-01  9.8230391981147647e-01  6.6169625472088156e-01  1.3643438559107826e-01  5.1290821316134017e-01  6.7779400782195320e-01  5.5206767782976651e-01  1.6837155305227955e-01  7.2120607084263588e-01  7.6159587532896567e-01  4.8308918058584710e-01  8.3343745453496210e-01  6.5445877680556364e-01  9.9998154176600418e-01  9.9998154176600418e-01  7.3871327944386644e-01  7.9359280329895021e-01  9.1300112560780011e-01  6.8741501734349275e-01  0.0000000000000000e+00  0.0000000000000000e+00  7.4538385930646256e-01  8.4152271412963764e-01  6.3588544800634772e-01  9.1471976186756598e-01  8.4113448030565097e-01  5.2501787894606844e-01  8.2660610405327462e-01  7.7828588031763068e-01  4.7233297207407687e-01  9.1705268814048513e-01  6.5909348847233284e-01  8.3936067512955137e-01  2.3442458396851507e-01  6.8343977816454649e-01  9.4921266729009954e-02  2.1286348276637684e-01  1.6319692152051271e-01  3.2030039782057346e-01  7.9300068542408841e-01  9.9998154176600429e-01  7.6952623717198732e-01  7.1801931174322531e-01  6.8457801052268619e-01  7.2124628001519664e-01  5.5897544956696521e-01  4.4511692795889057e-01  6.8437738658110592e-01  7.2713447420744670e-01  6.8483508752963185e-01  6.1503576805870985e-01  7.1023460773563385e-01  7.2641895356114428e-01  7.5311298004976490e-01  6.9463508181366507e-01  6.5236046899890743e-01  7.3533445971387346e-01  7.2278536230744916e-01  7.1030301379929239e-01  7.0248060269224222e-01  6.0970262510075857e-01  6.4515175636219801e-01  5.4357593296930906e-01  7.7345263520957674e-01  7.7292654369530478e-01  7.7930374512426503e-01  7.1939404159143538e-01  6.5582137677379027e-01  6.0275732012130023e-01  8.3482748117774441e-01  7.9890230544030927e-01  6.4360952362569046e-01  7.2988566212615758e-01  3.8020432903705581e-01  4.8347929259314087e-01  7.5866316012038981e-01  7.2230416317202251e-01  6.8103196242440034e-01  6.8499884606726968e-01  9.9587707942637971e-01  9.9998154176600407e-01  9.1040756045163829e-01  8.7286690488078267e-01  9.2095458304122935e-01  8.6354591954021576e-01  6.9018490886940387e-01  7.6576328986327546e-01  8.4254479466803378e-01  8.4300076489506182e-01  8.5867540308869061e-01  9.0781992185904015e-01  8.3727348173549154e-01  7.9362841557455654e-01  5.8397407291075509e-01  6.0560668992335820e-01  5.6515393034396844e-01  8.3145233335926194e-01  8.4607095977602254e-01  1.7270949762008111e-01  3.2753760789786029e-01  2.7995849745616092e-01  2.6114794275080577e-01  2.1109265873177854e-01  0.0000000000000000e+00  1.8583530400224968e-01  6.5005634772528287e-01  6.4609533530429042e-01  8.1798938677725319e-01  7.6516316194388123e-01  9.0548642322108819e-01  8.9796655497398892e-01  8.6111008584933246e-01  8.7464314433710699e-01  8.3133116633039472e-01  7.4881346634973611e-01  7.5275851615795797e-01  7.1050882326656528e-01  6.4081477598112646e-01  9.9998154176600429e-01  8.4042879877343235e-01  8.5808607526810143e-01  6.7560126647349283e-01  7.3039844465683890e-01  8.1146246405719735e-01  7.0166656285818352e-01  7.3873703177754690e-01  8.7922010313623944e-01  9.9998154176600407e-01  9.9998154176600429e-01  9.9998154176600429e-01  9.9998154176600407e-01  9.9998154176600418e-01  9.9998154176600418e-01  9.9998154176600429e-01  9.9998154176600418e-01  9.9998154176600418e-01  9.0905926331969422e-01  9.9998154176600418e-01  8.9250595638831132e-01  9.9998154176600418e-01  7.1891184862270896e-01  3.9793775539949677e-01  6.0753497679637924e-01  6.7436471802677755e-01  6.6961432092833706e-01  6.4551436276549745e-01  9.9998154176600429e-01  6.6715010246003903e-01  6.6413919723173387e-01  3.4007861768926229e-01  6.5169975255672008e-01  6.6713406840144629e-01  2.1270828356742041e-01  1.6604315148129364e-01  1.4513141598353926e-01  3.8948583156209199e-01  3.5702566069648034e-01  2.4928992084194937e-01  0.0000000000000000e+00  2.9614468171654740e-01  9.9998154176600418e-01  8.2042205910490007e-01  9.9998154176600418e-01  5.9871336508501183e-01  0.0000000000000000e+00  9.5790080186026438e-01  8.5831137262751345e-01  6.6260813609590430e-01  9.9998154176600418e-01  6.1884591652858822e-01  9.9998154176600407e-01  3.0630662127607355e-01  5.6415635179005785e-01  5.5621587368821523e-01  4.0085000342564303e-01  6.1140975749733129e-01  8.3976210498216397e-01  0.0000000000000000e+00  3.3974258396366031e-01  0.0000000000000000e+00  0.0000000000000000e+00  0.0000000000000000e+00  0.0000000000000000e+00  8.7313808797897208e-01  8.0899216669604601e-01  9.9998154176600407e-01  5.2615534146327692e-01  6.6197167215437513e-01  6.0869234312272580e-01  9.9998154176600429e-01  8.5088060528202114e-01  6.3992699084312221e-01  9.9998154176600429e-01  9.3364854753394788e-01  3.5299043460726481e-01  4.9470988564958651e-01  0.0000000000000000e+00  8.0968328784414190e-01  6.6919239937778763e-01  1.7030072662184539e-01  1.6528859136190013e-01  1.6708255977859110e-01  9.1770252621346948e-01  8.2970837730166946e-01  9.9998154176600418e-01  9.6083539911874205e-01  9.9998154176600418e-01  5.8165017378492379e-01  4.5909584840986184e-01  9.9998154176600418e-01  9.9998154176600429e-01  8.8031350575872480e-01  9.0612464006045801e-01  9.6908231376656595e-01  7.7567335093126921e-01  6.2418413441741649e-01  0.0000000000000000e+00  3.6538941253755858e-01  9.9998154176600418e-01  2.1241459833411705e-01  3.2673696108857442e-01  3.5651294980850295e-01  6.8888850660808643e-01  6.8419758175624912e-01  7.1932176682550408e-01  9.3711248563024419e-01  9.4829710119797772e-01  9.0726652114190831e-01  2.5042767677326727e-01  3.9850190997591983e-01  1.3789183517228318e-01  5.5195095981754128e-01  4.3557878978194059e-01  8.3339478061555350e-01  9.0445250086887996e-01  7.0097555761132679e-01  3.1689843223438563e-01  4.5899717889326469e-01  9.9998154176600429e-01  9.4748935602806383e-01  9.9998154176600418e-01  9.6141699649912871e-01  6.7562021144294959e-01  6.7101596624188964e-01  1.4257734224108401e-01  2.1846791255591594e-01  7.2170912829743517e-01  9.9998154176600429e-01  9.9998154176600429e-01  8.3100985171219277e-02  5.8677813011438283e-02  7.5782503587942784e-01  3.8051291556339417e-01  5.3873534096523534e-01  0.0000000000000000e+00  5.2381555299452676e-01  9.5705187808152292e-01  9.9998154176600418e-01  8.6368239270150049e-01  8.7889299800042431e-01  9.4534335755559329e-01  7.1006410048047353e-01  7.5832483197900602e-01  8.6420799274304616e-01  9.9998154176600418e-01  8.2529847831280911e-01  7.9122577910533887e-01  6.2356941202470872e-01  7.0083158695146652e-01  7.6386361051645069e-01  7.1815150431589203e-01  4.7162582274236670e-01  5.2524445015627441e-01  7.6231973017221955e-01  6.8102422648351668e-01  8.6010394306221327e-01  9.9998154176600418e-01  8.2547714001317773e-01  7.4605587784123684e-01  8.0232383098630244e-01  8.9328060500203998e-01  7.5883827049052865e-01  5.7244148686568352e-01  5.4683354621873725e-01  7.8291688650592883e-01  7.8606578339575250e-01  5.3789200716129415e-01  8.6507512406371656e-01  5.3045132525795824e-01  9.3742760018486793e-01  9.9998154176600418e-01  6.8852182704889331e-01  7.9029268706026645e-01  9.0929014555629073e-01  9.6738370910915236e-02  9.9998154176600418e-01  7.3792404895498565e-01  8.5763106649757270e-01  9.0297990934264738e-01  7.4647834032027016e-01  7.5560731316758323e-01  7.8889994026863131e-01  1.5049859983386674e-01  8.6598831936594345e-01  9.2506332465296215e-01  9.3099009078605355e-02  6.7655408920182875e-02  8.6498092297365647e-01  9.9998154176600407e-01  6.0566531710154647e-01  6.9369908661692758e-01  9.6235979910182368e-01  9.0979081228557102e-01  8.8213626640886489e-01  8.2495619428376754e-01  2.5840833029255045e-01  2.4777109820051474e-01  7.6432746609528124e-01  1.0183207778557482e-01  7.7709249134815284e-01  5.5330740497540898e-01  8.6810041227721890e-01  7.9594866856597990e-01  2.6069968608250499e-01  0.0000000000000000e+00  3.4131402062157612e-01  1.7697208747939253e-01  </DataArray> 
</PointData> 
</Piece>
</UnstructuredGrid>
</VTKFile>